/*--------------------------------*- C++ -*----------------------------------*\
  =========                 |
  \\      /  F ield         | OpenFOAM: The Open Source CFD Toolbox
   \\    /   O peration     | Website:  https://openfoam.org
    \\  /    A nd           | Version:  11
     \\/     M anipulation  |
\*---------------------------------------------------------------------------*/
FoamFile
{
    format      ascii;
    class       volScalarField;
    location    "468";
    object      p;
}
// * * * * * * * * * * * * * * * * * * * * * * * * * * * * * * * * * * * * * //

dimensions      [0 2 -2 0 0 0 0];

internalField   nonuniform List<scalar> 
175028
(
0.99991
0.99991
0.99991
0.99991
0.99991
0.99991
0.999909
0.999909
0.999909
0.999909
0.999909
0.999909
0.999909
0.999909
0.999908
0.999908
0.999908
0.999908
0.999908
0.999908
0.999908
0.999908
0.999907
0.999907
0.999907
0.999907
0.99973
0.99973
0.99973
0.999729
0.999729
0.999729
0.999728
0.999728
0.999728
0.999727
0.999727
0.999726
0.999726
0.999726
0.999725
0.999725
0.999725
0.999724
0.999724
0.999723
0.999723
0.999723
0.999722
0.999722
0.999722
0.999721
0.999551
0.99955
0.999549
0.999549
0.999548
0.999548
0.999547
0.999546
0.999546
0.999545
0.999545
0.999544
0.999543
0.999543
0.999542
0.999542
0.999541
0.99954
0.99954
0.999539
0.999539
0.999538
0.999537
0.999537
0.999536
0.999535
0.999371
0.99937
0.999369
0.999368
0.999368
0.999367
0.999366
0.999365
0.999364
0.999363
0.999362
0.999362
0.999361
0.99936
0.999359
0.999358
0.999357
0.999357
0.999356
0.999355
0.999354
0.999353
0.999352
0.999351
0.999351
0.99935
0.999191
0.99919
0.999189
0.999188
0.999187
0.999186
0.999185
0.999184
0.999183
0.999181
0.99918
0.999179
0.999178
0.999177
0.999176
0.999175
0.999174
0.999173
0.999172
0.999171
0.999169
0.999168
0.999167
0.999166
0.999165
0.999164
0.999012
0.99901
0.999009
0.999008
0.999006
0.999005
0.999004
0.999002
0.999001
0.999
0.998998
0.998997
0.998996
0.998994
0.998993
0.998992
0.99899
0.998989
0.998988
0.998986
0.998985
0.998984
0.998982
0.998981
0.998979
0.998978
0.998832
0.99883
0.998829
0.998827
0.998825
0.998824
0.998822
0.998821
0.998819
0.998818
0.998816
0.998814
0.998813
0.998811
0.99881
0.998808
0.998807
0.998805
0.998803
0.998802
0.9988
0.998799
0.998797
0.998796
0.998794
0.998792
0.998652
0.99865
0.998648
0.998647
0.998645
0.998643
0.998641
0.998639
0.998638
0.998636
0.998634
0.998632
0.99863
0.998628
0.998627
0.998625
0.998623
0.998621
0.998619
0.998618
0.998616
0.998614
0.998612
0.99861
0.998608
0.998606
0.998473
0.99847
0.998468
0.998466
0.998464
0.998462
0.99846
0.998458
0.998456
0.998454
0.998452
0.99845
0.998448
0.998446
0.998443
0.998441
0.998439
0.998437
0.998435
0.998433
0.998431
0.998429
0.998427
0.998425
0.998423
0.99842
0.998293
0.99829
0.998288
0.998286
0.998283
0.998281
0.998279
0.998277
0.998274
0.998272
0.99827
0.998267
0.998265
0.998263
0.99826
0.998258
0.998256
0.998253
0.998251
0.998249
0.998247
0.998244
0.998242
0.99824
0.998237
0.998235
0.998113
0.99811
0.998108
0.998105
0.998103
0.9981
0.998098
0.998095
0.998093
0.99809
0.998087
0.998085
0.998082
0.99808
0.998077
0.998075
0.998072
0.99807
0.998067
0.998065
0.998062
0.998059
0.998057
0.998054
0.998052
0.998049
0.997934
0.997931
0.997928
0.997925
0.997922
0.997919
0.997916
0.997914
0.997911
0.997908
0.997905
0.997903
0.9979
0.997897
0.997894
0.997891
0.997889
0.997886
0.997883
0.99788
0.997877
0.997875
0.997872
0.997869
0.997866
0.997863
0.997754
0.997751
0.997747
0.997744
0.997741
0.997738
0.997735
0.997732
0.997729
0.997726
0.997723
0.99772
0.997717
0.997714
0.997711
0.997708
0.997705
0.997702
0.997699
0.997696
0.997693
0.99769
0.997687
0.997684
0.997681
0.997677
0.997574
0.997571
0.997567
0.997564
0.997561
0.997557
0.997554
0.997551
0.997548
0.997544
0.997541
0.997538
0.997534
0.997531
0.997528
0.997525
0.997521
0.997518
0.997515
0.997512
0.997508
0.997505
0.997502
0.997498
0.997495
0.997491
0.997395
0.997391
0.997387
0.997383
0.99738
0.997376
0.997373
0.997369
0.997366
0.997362
0.997359
0.997355
0.997352
0.997348
0.997345
0.997341
0.997338
0.997334
0.997331
0.997327
0.997324
0.99732
0.997317
0.997313
0.997309
0.997305
0.997215
0.997211
0.997207
0.997203
0.997199
0.997195
0.997192
0.997188
0.997184
0.99718
0.997177
0.997173
0.997169
0.997165
0.997162
0.997158
0.997154
0.99715
0.997147
0.997143
0.997139
0.997135
0.997132
0.997128
0.997124
0.99712
0.997035
0.997031
0.997027
0.997023
0.997019
0.997015
0.997011
0.997007
0.997003
0.996999
0.996995
0.996991
0.996987
0.996983
0.996979
0.996975
0.996971
0.996967
0.996963
0.996959
0.996955
0.996951
0.996947
0.996943
0.996938
0.996934
0.996856
0.996851
0.996846
0.996842
0.996838
0.996834
0.996829
0.996825
0.996821
0.996817
0.996812
0.996808
0.996804
0.9968
0.996795
0.996791
0.996787
0.996783
0.996778
0.996774
0.99677
0.996766
0.996761
0.996757
0.996753
0.996748
0.996676
0.996671
0.996666
0.996662
0.996657
0.996653
0.996648
0.996644
0.996639
0.996635
0.99663
0.996626
0.996621
0.996617
0.996612
0.996608
0.996603
0.996599
0.996594
0.99659
0.996585
0.996581
0.996576
0.996572
0.996567
0.996562
0.996496
0.996491
0.996486
0.996481
0.996476
0.996472
0.996467
0.996462
0.996458
0.996453
0.996448
0.996443
0.996439
0.996434
0.996429
0.996424
0.99642
0.996415
0.99641
0.996406
0.996401
0.996396
0.996391
0.996387
0.996382
0.996376
0.996317
0.996311
0.996306
0.996301
0.996296
0.996291
0.996286
0.996281
0.996276
0.996271
0.996266
0.996261
0.996256
0.996251
0.996246
0.996241
0.996236
0.996231
0.996226
0.996221
0.996216
0.996211
0.996206
0.996201
0.996196
0.99619
0.996137
0.996131
0.996125
0.99612
0.996115
0.99611
0.996105
0.996099
0.996094
0.996089
0.996084
0.996079
0.996073
0.996068
0.996063
0.996058
0.996053
0.996047
0.996042
0.996037
0.996032
0.996026
0.996021
0.996016
0.996011
0.996005
0.995957
0.995951
0.995945
0.99594
0.995934
0.995929
0.995923
0.995918
0.995913
0.995907
0.995902
0.995896
0.995891
0.995885
0.99588
0.995874
0.995869
0.995863
0.995858
0.995853
0.995847
0.995842
0.995836
0.995831
0.995825
0.995819
0.995778
0.995771
0.995765
0.995759
0.995754
0.995748
0.995742
0.995737
0.995731
0.995725
0.99572
0.995714
0.995708
0.995702
0.995697
0.995691
0.995685
0.99568
0.995674
0.995668
0.995663
0.995657
0.995651
0.995645
0.995639
0.995633
0.995598
0.995591
0.995585
0.995579
0.995573
0.995567
0.995561
0.995555
0.995549
0.995543
0.995537
0.995531
0.995525
0.99552
0.995514
0.995508
0.995502
0.995496
0.99549
0.995484
0.995478
0.995472
0.995466
0.99546
0.995454
0.995447
0.995418
0.995411
0.995405
0.995398
0.995392
0.995386
0.99538
0.995374
0.995368
0.995361
0.995355
0.995349
0.995343
0.995337
0.99533
0.995324
0.995318
0.995312
0.995306
0.9953
0.995293
0.995287
0.995281
0.995275
0.995268
0.995261
0.995238
0.995231
0.995224
0.995218
0.995212
0.995205
0.995199
0.995192
0.995186
0.995179
0.995173
0.995167
0.99516
0.995154
0.995147
0.995141
0.995134
0.995128
0.995122
0.995115
0.995109
0.995102
0.995096
0.99509
0.995083
0.995076
0.995059
0.995051
0.995044
0.995038
0.995031
0.995024
0.995018
0.995011
0.995004
0.994998
0.994991
0.994984
0.994978
0.994971
0.994964
0.994958
0.994951
0.994944
0.994938
0.994931
0.994924
0.994918
0.994911
0.994904
0.994897
0.99489
0.994879
0.994871
0.994864
0.994857
0.99485
0.994843
0.994836
0.994829
0.994823
0.994816
0.994809
0.994802
0.994795
0.994788
0.994781
0.994774
0.994767
0.99476
0.994753
0.994747
0.99474
0.994733
0.994726
0.994719
0.994712
0.994704
0.994699
0.994691
0.994684
0.994677
0.99467
0.994662
0.994655
0.994648
0.994641
0.994634
0.994627
0.994619
0.994612
0.994605
0.994598
0.994591
0.994584
0.994577
0.994569
0.994562
0.994555
0.994548
0.994541
0.994534
0.994526
0.994518
0.99452
0.994511
0.994504
0.994496
0.994489
0.994481
0.994474
0.994467
0.994459
0.994452
0.994444
0.994437
0.99443
0.994422
0.994415
0.994407
0.9944
0.994393
0.994385
0.994378
0.99437
0.994363
0.994356
0.994348
0.994341
0.994332
0.99434
0.994331
0.994323
0.994316
0.994308
0.994301
0.994293
0.994285
0.994278
0.99427
0.994262
0.994255
0.994247
0.994239
0.994232
0.994224
0.994216
0.994209
0.994201
0.994194
0.994186
0.994178
0.994171
0.994163
0.994155
0.994146
0.99416
0.994152
0.994143
0.994135
0.994127
0.99412
0.994112
0.994104
0.994096
0.994088
0.99408
0.994072
0.994064
0.994057
0.994049
0.994041
0.994033
0.994025
0.994017
0.994009
0.994001
0.993993
0.993986
0.993978
0.993969
0.993961
0.993981
0.993972
0.993963
0.993955
0.993947
0.993939
0.993931
0.993922
0.993914
0.993906
0.993898
0.99389
0.993882
0.993874
0.993866
0.993857
0.993849
0.993841
0.993833
0.993825
0.993817
0.993809
0.993801
0.993792
0.993784
0.993775
0.993801
0.993792
0.993783
0.993774
0.993766
0.993758
0.993749
0.993741
0.993733
0.993724
0.993716
0.993708
0.993699
0.993691
0.993682
0.993674
0.993666
0.993657
0.993649
0.993641
0.993632
0.993624
0.993615
0.993607
0.993598
0.993589
0.993621
0.993612
0.993603
0.993594
0.993585
0.993577
0.993568
0.99356
0.993551
0.993542
0.993534
0.993525
0.993517
0.993508
0.993499
0.993491
0.993482
0.993473
0.993465
0.993456
0.993448
0.993439
0.99343
0.993422
0.993413
0.993403
0.993442
0.993432
0.993422
0.993414
0.993405
0.993396
0.993387
0.993378
0.993369
0.99336
0.993352
0.993343
0.993334
0.993325
0.993316
0.993307
0.993298
0.99329
0.993281
0.993272
0.993263
0.993254
0.993245
0.993237
0.993227
0.993217
0.993262
0.993252
0.993242
0.993233
0.993224
0.993215
0.993206
0.993197
0.993188
0.993179
0.993169
0.99316
0.993151
0.993142
0.993133
0.993124
0.993115
0.993106
0.993097
0.993088
0.993078
0.993069
0.99306
0.993051
0.993042
0.993031
0.993082
0.993072
0.993062
0.993053
0.993043
0.993034
0.993025
0.993015
0.993006
0.992997
0.992987
0.992978
0.992969
0.992959
0.99295
0.992941
0.992931
0.992922
0.992913
0.992903
0.992894
0.992885
0.992875
0.992866
0.992856
0.992846
0.992903
0.992892
0.992882
0.992872
0.992863
0.992853
0.992843
0.992834
0.992824
0.992815
0.992805
0.992796
0.992786
0.992776
0.992767
0.992757
0.992748
0.992738
0.992728
0.992719
0.992709
0.9927
0.99269
0.992681
0.99267
0.99266
0.992723
0.992712
0.992702
0.992692
0.992682
0.992672
0.992662
0.992652
0.992643
0.992633
0.992623
0.992613
0.992603
0.992594
0.992584
0.992574
0.992564
0.992554
0.992544
0.992535
0.992525
0.992515
0.992505
0.992495
0.992485
0.992474
0.992543
0.992532
0.992521
0.992511
0.992501
0.992491
0.992481
0.992471
0.992461
0.992451
0.992441
0.992431
0.992421
0.992411
0.992401
0.992391
0.99238
0.99237
0.99236
0.99235
0.99234
0.99233
0.99232
0.99231
0.992299
0.992288
0.992364
0.992352
0.992341
0.992331
0.992321
0.99231
0.9923
0.99229
0.992279
0.992269
0.992259
0.992248
0.992238
0.992228
0.992217
0.992207
0.992197
0.992187
0.992176
0.992166
0.992156
0.992145
0.992135
0.992125
0.992114
0.992102
0.992184
0.992172
0.992161
0.99215
0.99214
0.992129
0.992119
0.992108
0.992098
0.992087
0.992077
0.992066
0.992055
0.992045
0.992034
0.992024
0.992013
0.992003
0.991992
0.991982
0.991971
0.99196
0.99195
0.991939
0.991928
0.991916
0.992004
0.991992
0.991981
0.99197
0.991959
0.991948
0.991938
0.991927
0.991916
0.991905
0.991894
0.991884
0.991873
0.991862
0.991851
0.99184
0.99183
0.991819
0.991808
0.991797
0.991786
0.991776
0.991765
0.991754
0.991743
0.991731
0.991825
0.991812
0.9918
0.991789
0.991778
0.991767
0.991756
0.991745
0.991734
0.991723
0.991712
0.991701
0.99169
0.991679
0.991668
0.991657
0.991646
0.991635
0.991624
0.991613
0.991602
0.991591
0.99158
0.991569
0.991557
0.991545
0.991645
0.991632
0.99162
0.991609
0.991598
0.991586
0.991575
0.991564
0.991553
0.991541
0.99153
0.991519
0.991508
0.991496
0.991485
0.991474
0.991462
0.991451
0.99144
0.991429
0.991417
0.991406
0.991395
0.991384
0.991372
0.991359
0.991465
0.991452
0.99144
0.991429
0.991417
0.991406
0.991394
0.991383
0.991371
0.991359
0.991348
0.991336
0.991325
0.991313
0.991302
0.99129
0.991279
0.991267
0.991256
0.991244
0.991233
0.991221
0.99121
0.991198
0.991186
0.991173
0.991286
0.991272
0.99126
0.991248
0.991236
0.991225
0.991213
0.991201
0.991189
0.991178
0.991166
0.991154
0.991142
0.991131
0.991119
0.991107
0.991095
0.991083
0.991072
0.99106
0.991048
0.991036
0.991025
0.991013
0.991
0.990987
0.991106
0.991092
0.99108
0.991068
0.991056
0.991044
0.991032
0.99102
0.991008
0.990996
0.990984
0.990972
0.99096
0.990948
0.990936
0.990924
0.990912
0.9909
0.990888
0.990876
0.990864
0.990852
0.99084
0.990828
0.990815
0.990801
0.990926
0.990912
0.990899
0.990887
0.990875
0.990863
0.99085
0.990838
0.990826
0.990814
0.990801
0.990789
0.990777
0.990765
0.990753
0.99074
0.990728
0.990716
0.990704
0.990691
0.990679
0.990667
0.990655
0.990642
0.990629
0.990616
0.990746
0.990732
0.990719
0.990707
0.990694
0.990682
0.990669
0.990657
0.990644
0.990632
0.990619
0.990607
0.990594
0.990582
0.990569
0.990557
0.990544
0.990532
0.990519
0.990507
0.990494
0.990482
0.99047
0.990457
0.990444
0.99043
0.990567
0.990552
0.990539
0.990526
0.990514
0.990501
0.990488
0.990475
0.990463
0.99045
0.990437
0.990424
0.990412
0.990399
0.990386
0.990374
0.990361
0.990348
0.990335
0.990323
0.99031
0.990297
0.990284
0.990272
0.990258
0.990244
0.990387
0.990373
0.990359
0.990346
0.990333
0.99032
0.990307
0.990294
0.990281
0.990268
0.990255
0.990242
0.990229
0.990216
0.990203
0.99019
0.990177
0.990164
0.990151
0.990138
0.990125
0.990112
0.990099
0.990086
0.990073
0.990058
0.990207
0.990193
0.990179
0.990165
0.990152
0.990139
0.990126
0.990113
0.990099
0.990086
0.990073
0.99006
0.990046
0.990033
0.99002
0.990007
0.989994
0.98998
0.989967
0.989954
0.989941
0.989927
0.989914
0.989901
0.989887
0.989872
0.990028
0.990013
0.989998
0.989985
0.989972
0.989958
0.989945
0.989931
0.989918
0.989904
0.989891
0.989877
0.989864
0.98985
0.989837
0.989823
0.98981
0.989797
0.989783
0.98977
0.989756
0.989743
0.989729
0.989716
0.989702
0.989686
0.989848
0.989833
0.989818
0.989804
0.989791
0.989777
0.989763
0.98975
0.989736
0.989722
0.989709
0.989695
0.989681
0.989667
0.989654
0.98964
0.989626
0.989613
0.989599
0.989585
0.989572
0.989558
0.989544
0.989531
0.989516
0.989501
0.989668
0.989653
0.989638
0.989624
0.98961
0.989596
0.989582
0.989568
0.989554
0.98954
0.989526
0.989513
0.989499
0.989485
0.989471
0.989457
0.989443
0.989429
0.989415
0.989401
0.989387
0.989373
0.989359
0.989345
0.98933
0.989315
0.989489
0.989473
0.989458
0.989444
0.989429
0.989415
0.989401
0.989387
0.989373
0.989358
0.989344
0.98933
0.989316
0.989302
0.989288
0.989273
0.989259
0.989245
0.989231
0.989217
0.989202
0.989188
0.989174
0.98916
0.989145
0.989129
0.989309
0.989293
0.989278
0.989263
0.989249
0.989234
0.98922
0.989205
0.989191
0.989177
0.989162
0.989148
0.989133
0.989119
0.989104
0.98909
0.989076
0.989061
0.989047
0.989032
0.989018
0.989003
0.988989
0.988975
0.988959
0.988943
0.989129
0.989113
0.989097
0.989083
0.989068
0.989053
0.989039
0.989024
0.989009
0.988995
0.98898
0.988965
0.988951
0.988936
0.988921
0.988907
0.988892
0.988877
0.988863
0.988848
0.988833
0.988819
0.988804
0.988789
0.988774
0.988757
0.98895
0.988933
0.988917
0.988902
0.988887
0.988872
0.988858
0.988843
0.988828
0.988813
0.988798
0.988783
0.988768
0.988753
0.988738
0.988723
0.988708
0.988693
0.988679
0.988664
0.988649
0.988634
0.988619
0.988604
0.988588
0.988571
0.98877
0.988753
0.988737
0.988722
0.988707
0.988692
0.988676
0.988661
0.988646
0.988631
0.988616
0.988601
0.988585
0.98857
0.988555
0.98854
0.988525
0.98851
0.988494
0.988479
0.988464
0.988449
0.988434
0.988419
0.988403
0.988386
0.98859
0.988573
0.988557
0.988541
0.988526
0.988511
0.988495
0.98848
0.988464
0.988449
0.988434
0.988418
0.988403
0.988387
0.988372
0.988357
0.988341
0.988326
0.98831
0.988295
0.98828
0.988264
0.988249
0.988233
0.988217
0.9882
0.988411
0.988393
0.988376
0.988361
0.988345
0.98833
0.988314
0.988298
0.988283
0.988267
0.988251
0.988236
0.98822
0.988204
0.988189
0.988173
0.988158
0.988142
0.988126
0.988111
0.988095
0.988079
0.988064
0.988048
0.988032
0.988014
0.988231
0.988213
0.988196
0.98818
0.988165
0.988149
0.988133
0.988117
0.988101
0.988085
0.988069
0.988053
0.988037
0.988022
0.988006
0.98799
0.987974
0.987958
0.987942
0.987926
0.98791
0.987895
0.987879
0.987863
0.987846
0.987828
0.988051
0.988033
0.988016
0.988
0.987984
0.987968
0.987952
0.987936
0.987919
0.987903
0.987887
0.987871
0.987855
0.987839
0.987823
0.987806
0.98779
0.987774
0.987758
0.987742
0.987726
0.98771
0.987694
0.987678
0.98766
0.987642
0.987872
0.987853
0.987836
0.98782
0.987803
0.987787
0.98777
0.987754
0.987738
0.987721
0.987705
0.987689
0.987672
0.987656
0.987639
0.987623
0.987607
0.98759
0.987574
0.987558
0.987541
0.987525
0.987509
0.987492
0.987475
0.987456
0.987692
0.987673
0.987656
0.987639
0.987623
0.987606
0.987589
0.987573
0.987556
0.987539
0.987523
0.987506
0.98749
0.987473
0.987456
0.98744
0.987423
0.987407
0.98739
0.987373
0.987357
0.98734
0.987324
0.987307
0.987289
0.987271
0.987512
0.987493
0.987475
0.987459
0.987442
0.987425
0.987408
0.987391
0.987374
0.987358
0.987341
0.987324
0.987307
0.98729
0.987273
0.987256
0.98724
0.987223
0.987206
0.987189
0.987172
0.987155
0.987138
0.987122
0.987104
0.987085
0.987333
0.987313
0.987295
0.987278
0.987261
0.987244
0.987227
0.98721
0.987193
0.987176
0.987159
0.987141
0.987124
0.987107
0.98709
0.987073
0.987056
0.987039
0.987022
0.987005
0.986988
0.98697
0.986953
0.986936
0.986918
0.986899
0.987153
0.987133
0.987115
0.987098
0.98708
0.987063
0.987046
0.987028
0.987011
0.986994
0.986976
0.986959
0.986942
0.986924
0.986907
0.98689
0.986872
0.986855
0.986838
0.98682
0.986803
0.986786
0.986768
0.986751
0.986733
0.986713
0.986973
0.986953
0.986935
0.986917
0.9869
0.986882
0.986865
0.986847
0.986829
0.986812
0.986794
0.986777
0.986759
0.986741
0.986724
0.986706
0.986689
0.986671
0.986654
0.986636
0.986618
0.986601
0.986583
0.986566
0.986547
0.986527
0.986794
0.986773
0.986755
0.986737
0.986719
0.986701
0.986683
0.986666
0.986648
0.98663
0.986612
0.986594
0.986576
0.986559
0.986541
0.986523
0.986505
0.986487
0.986469
0.986452
0.986434
0.986416
0.986398
0.98638
0.986362
0.986342
0.986614
0.986593
0.986574
0.986556
0.986538
0.98652
0.986502
0.986484
0.986466
0.986448
0.98643
0.986412
0.986394
0.986376
0.986358
0.98634
0.986322
0.986303
0.986285
0.986267
0.986249
0.986231
0.986213
0.986195
0.986176
0.986156
0.986434
0.986414
0.986394
0.986376
0.986358
0.986339
0.986321
0.986303
0.986284
0.986266
0.986248
0.986229
0.986211
0.986193
0.986175
0.986156
0.986138
0.98612
0.986101
0.986083
0.986065
0.986046
0.986028
0.98601
0.98599
0.98597
0.986254
0.986234
0.986214
0.986195
0.986177
0.986158
0.98614
0.986121
0.986103
0.986084
0.986066
0.986047
0.986029
0.98601
0.985991
0.985973
0.985954
0.985936
0.985917
0.985899
0.98588
0.985862
0.985843
0.985825
0.985805
0.985784
0.986075
0.986054
0.986034
0.986015
0.985996
0.985977
0.985959
0.98594
0.985921
0.985902
0.985883
0.985865
0.985846
0.985827
0.985808
0.98579
0.985771
0.985752
0.985733
0.985714
0.985696
0.985677
0.985658
0.985639
0.985619
0.985598
0.985895
0.985874
0.985854
0.985835
0.985816
0.985797
0.985778
0.985758
0.985739
0.98572
0.985701
0.985682
0.985663
0.985644
0.985625
0.985606
0.985587
0.985568
0.985549
0.98553
0.985511
0.985492
0.985473
0.985454
0.985434
0.985412
0.985715
0.985694
0.985673
0.985654
0.985635
0.985616
0.985596
0.985577
0.985558
0.985538
0.985519
0.9855
0.985481
0.985461
0.985442
0.985423
0.985404
0.985384
0.985365
0.985346
0.985326
0.985307
0.985288
0.985269
0.985248
0.985227
0.985536
0.985514
0.985493
0.985474
0.985454
0.985435
0.985415
0.985396
0.985376
0.985357
0.985337
0.985318
0.985298
0.985278
0.985259
0.985239
0.98522
0.9852
0.985181
0.985161
0.985142
0.985122
0.985103
0.985083
0.985063
0.985041
0.985356
0.985334
0.985313
0.985293
0.985273
0.985254
0.985234
0.985214
0.985194
0.985175
0.985155
0.985135
0.985115
0.985096
0.985076
0.985056
0.985036
0.985017
0.984997
0.984977
0.984957
0.984937
0.984918
0.984898
0.984877
0.984855
0.985176
0.985154
0.985133
0.985113
0.985093
0.985073
0.985053
0.985033
0.985013
0.984993
0.984973
0.984953
0.984933
0.984913
0.984893
0.984873
0.984853
0.984833
0.984813
0.984793
0.984773
0.984753
0.984733
0.984713
0.984692
0.984669
0.984997
0.984974
0.984952
0.984932
0.984912
0.984892
0.984872
0.984851
0.984831
0.984811
0.984791
0.98477
0.98475
0.98473
0.98471
0.984689
0.984669
0.984649
0.984629
0.984608
0.984588
0.984568
0.984548
0.984527
0.984506
0.984483
0.984817
0.984794
0.984772
0.984752
0.984731
0.984711
0.98469
0.98467
0.984649
0.984629
0.984608
0.984588
0.984567
0.984547
0.984526
0.984506
0.984485
0.984465
0.984444
0.984424
0.984404
0.984383
0.984363
0.984342
0.98432
0.984297
0.984637
0.984614
0.984592
0.984571
0.984551
0.98453
0.984509
0.984489
0.984468
0.984447
0.984426
0.984406
0.984385
0.984364
0.984343
0.984323
0.984302
0.984281
0.98426
0.98424
0.984219
0.984198
0.984178
0.984157
0.984135
0.984112
0.984458
0.984434
0.984412
0.984391
0.98437
0.984349
0.984328
0.984307
0.984286
0.984265
0.984244
0.984223
0.984202
0.984181
0.98416
0.984139
0.984118
0.984097
0.984076
0.984055
0.984034
0.984013
0.983992
0.983972
0.983949
0.983926
0.984278
0.984254
0.984232
0.98421
0.984189
0.984168
0.984147
0.984126
0.984104
0.984083
0.984062
0.984041
0.98402
0.983998
0.983977
0.983956
0.983935
0.983913
0.983892
0.983871
0.98385
0.983829
0.983807
0.983786
0.983764
0.98374
0.984098
0.984074
0.984051
0.98403
0.984009
0.983987
0.983966
0.983944
0.983923
0.983901
0.98388
0.983858
0.983837
0.983815
0.983794
0.983773
0.983751
0.98373
0.983708
0.983687
0.983665
0.983644
0.983622
0.983601
0.983578
0.983554
0.983919
0.983894
0.983871
0.98385
0.983828
0.983806
0.983785
0.983763
0.983741
0.983719
0.983698
0.983676
0.983654
0.983633
0.983611
0.983589
0.983567
0.983546
0.983524
0.983502
0.983481
0.983459
0.983437
0.983416
0.983393
0.983368
0.983739
0.983714
0.983691
0.983669
0.983647
0.983625
0.983603
0.983581
0.983559
0.983538
0.983516
0.983494
0.983472
0.98345
0.983428
0.983406
0.983384
0.983362
0.98334
0.983318
0.983296
0.983274
0.983252
0.98323
0.983207
0.983182
0.983559
0.983534
0.983511
0.983489
0.983467
0.983444
0.983422
0.9834
0.983378
0.983356
0.983333
0.983311
0.983289
0.983267
0.983245
0.983222
0.9832
0.983178
0.983156
0.983134
0.983111
0.983089
0.983067
0.983045
0.983022
0.982997
0.98338
0.983354
0.983331
0.983308
0.983286
0.983263
0.983241
0.983219
0.983196
0.983174
0.983151
0.983129
0.983106
0.983084
0.983062
0.983039
0.983017
0.982994
0.982972
0.982949
0.982927
0.982904
0.982882
0.98286
0.982836
0.982811
0.9832
0.983174
0.98315
0.983128
0.983105
0.983083
0.98306
0.983037
0.983014
0.982992
0.982969
0.982946
0.982924
0.982901
0.982878
0.982856
0.982833
0.98281
0.982788
0.982765
0.982742
0.98272
0.982697
0.982674
0.98265
0.982625
0.98302
0.982994
0.98297
0.982947
0.982924
0.982902
0.982879
0.982856
0.982833
0.98281
0.982787
0.982764
0.982741
0.982718
0.982695
0.982672
0.982649
0.982627
0.982604
0.982581
0.982558
0.982535
0.982512
0.982489
0.982465
0.982439
0.982841
0.982814
0.98279
0.982767
0.982744
0.982721
0.982697
0.982674
0.982651
0.982628
0.982605
0.982582
0.982559
0.982535
0.982512
0.982489
0.982466
0.982443
0.98242
0.982396
0.982373
0.98235
0.982327
0.982304
0.982279
0.982253
0.982661
0.982635
0.98261
0.982586
0.982563
0.98254
0.982516
0.982493
0.982469
0.982446
0.982423
0.982399
0.982376
0.982352
0.982329
0.982306
0.982282
0.982259
0.982235
0.982212
0.982189
0.982165
0.982142
0.982119
0.982094
0.982067
0.982481
0.982455
0.98243
0.982406
0.982382
0.982359
0.982335
0.982311
0.982288
0.982264
0.982241
0.982217
0.982193
0.98217
0.982146
0.982122
0.982099
0.982075
0.982051
0.982028
0.982004
0.98198
0.981957
0.981933
0.981908
0.981882
0.982302
0.982275
0.982249
0.982226
0.982202
0.982178
0.982154
0.98213
0.982106
0.982082
0.982058
0.982034
0.982011
0.981987
0.981963
0.981939
0.981915
0.981891
0.981867
0.981843
0.981819
0.981796
0.981772
0.981748
0.981723
0.981696
0.982122
0.982095
0.982069
0.982045
0.982021
0.981997
0.981973
0.981949
0.981925
0.9819
0.981876
0.981852
0.981828
0.981804
0.98178
0.981756
0.981731
0.981707
0.981683
0.981659
0.981635
0.981611
0.981587
0.981563
0.981537
0.98151
0.981942
0.981915
0.981889
0.981865
0.98184
0.981816
0.981792
0.981767
0.981743
0.981718
0.981694
0.98167
0.981645
0.981621
0.981597
0.981572
0.981548
0.981523
0.981499
0.981475
0.98145
0.981426
0.981402
0.981377
0.981352
0.981324
0.981763
0.981735
0.981709
0.981684
0.98166
0.981635
0.98161
0.981586
0.981561
0.981537
0.981512
0.981487
0.981463
0.981438
0.981413
0.981389
0.981364
0.98134
0.981315
0.98129
0.981266
0.981241
0.981217
0.981192
0.981166
0.981138
0.981583
0.981555
0.981529
0.981504
0.981479
0.981454
0.981429
0.981404
0.98138
0.981355
0.98133
0.981305
0.98128
0.981255
0.98123
0.981205
0.981181
0.981156
0.981131
0.981106
0.981081
0.981056
0.981032
0.981007
0.98098
0.980952
0.981403
0.981375
0.981348
0.981323
0.981298
0.981273
0.981248
0.981223
0.981198
0.981173
0.981148
0.981123
0.981097
0.981072
0.981047
0.981022
0.980997
0.980972
0.980947
0.980922
0.980897
0.980872
0.980847
0.980821
0.980795
0.980767
0.981223
0.981195
0.981168
0.981143
0.981118
0.981092
0.981067
0.981042
0.981016
0.980991
0.980965
0.98094
0.980915
0.980889
0.980864
0.980839
0.980813
0.980788
0.980763
0.980737
0.980712
0.980687
0.980661
0.980636
0.980609
0.980581
0.981044
0.981015
0.980988
0.980962
0.980937
0.980911
0.980886
0.98086
0.980835
0.980809
0.980783
0.980758
0.980732
0.980707
0.980681
0.980655
0.98063
0.980604
0.980579
0.980553
0.980527
0.980502
0.980476
0.980451
0.980424
0.980395
0.980864
0.980835
0.980808
0.980782
0.980756
0.98073
0.980705
0.980679
0.980653
0.980627
0.980601
0.980575
0.98055
0.980524
0.980498
0.980472
0.980446
0.98042
0.980395
0.980369
0.980343
0.980317
0.980291
0.980266
0.980238
0.980209
0.980684
0.980655
0.980627
0.980601
0.980575
0.980549
0.980523
0.980497
0.980471
0.980445
0.980419
0.980393
0.980367
0.980341
0.980315
0.980289
0.980263
0.980237
0.98021
0.980184
0.980158
0.980132
0.980106
0.98008
0.980053
0.980023
0.980505
0.980475
0.980447
0.980421
0.980395
0.980368
0.980342
0.980316
0.98029
0.980263
0.980237
0.980211
0.980184
0.980158
0.980132
0.980105
0.980079
0.980053
0.980026
0.98
0.979974
0.979947
0.979921
0.979895
0.979867
0.979837
0.980325
0.980295
0.980267
0.980241
0.980214
0.980188
0.980161
0.980134
0.980108
0.980081
0.980055
0.980028
0.980002
0.979975
0.979949
0.979922
0.979895
0.979869
0.979842
0.979816
0.979789
0.979763
0.979736
0.97971
0.979682
0.979652
0.980145
0.980115
0.980087
0.98006
0.980033
0.980007
0.97998
0.979953
0.979926
0.979899
0.979873
0.979846
0.979819
0.979792
0.979765
0.979739
0.979712
0.979685
0.979658
0.979631
0.979605
0.979578
0.979551
0.979524
0.979496
0.979466
0.979966
0.979935
0.979907
0.97988
0.979853
0.979826
0.979799
0.979772
0.979745
0.979718
0.97969
0.979663
0.979636
0.979609
0.979582
0.979555
0.979528
0.979501
0.979474
0.979447
0.97942
0.979393
0.979366
0.979339
0.97931
0.97928
0.979786
0.979755
0.979726
0.979699
0.979672
0.979645
0.979617
0.97959
0.979563
0.979536
0.979508
0.979481
0.979454
0.979426
0.979399
0.979372
0.979345
0.979317
0.97929
0.979263
0.979235
0.979208
0.979181
0.979154
0.979125
0.979094
0.979606
0.979575
0.979546
0.979519
0.979491
0.979464
0.979436
0.979409
0.979381
0.979354
0.979326
0.979299
0.979271
0.979244
0.979216
0.979189
0.979161
0.979133
0.979106
0.979078
0.979051
0.979023
0.978996
0.978968
0.978939
0.978908
0.979427
0.979395
0.979366
0.979338
0.979311
0.979283
0.979255
0.979227
0.9792
0.979172
0.979144
0.979116
0.979088
0.979061
0.979033
0.979005
0.978977
0.97895
0.978922
0.978894
0.978866
0.978839
0.978811
0.978783
0.978754
0.978723
0.979247
0.979215
0.979186
0.979158
0.97913
0.979102
0.979074
0.979046
0.979018
0.97899
0.978962
0.978934
0.978906
0.978878
0.97885
0.978822
0.978794
0.978766
0.978738
0.97871
0.978682
0.978654
0.978626
0.978598
0.978568
0.978537
0.979067
0.979035
0.979006
0.978977
0.978949
0.978921
0.978893
0.978864
0.978836
0.978808
0.97878
0.978751
0.978723
0.978695
0.978667
0.978638
0.97861
0.978582
0.978554
0.978525
0.978497
0.978469
0.978441
0.978413
0.978383
0.978351
0.978888
0.978856
0.978825
0.978797
0.978769
0.97874
0.978712
0.978683
0.978655
0.978626
0.978598
0.978569
0.978541
0.978512
0.978484
0.978455
0.978427
0.978398
0.97837
0.978341
0.978313
0.978284
0.978256
0.978227
0.978197
0.978165
0.978708
0.978676
0.978645
0.978616
0.978588
0.978559
0.97853
0.978502
0.978473
0.978444
0.978415
0.978387
0.978358
0.978329
0.9783
0.978272
0.978243
0.978214
0.978186
0.978157
0.978128
0.978099
0.978071
0.978042
0.978012
0.977979
0.978528
0.978496
0.978465
0.978436
0.978407
0.978378
0.978349
0.97832
0.978291
0.978262
0.978233
0.978204
0.978175
0.978146
0.978117
0.978088
0.978059
0.97803
0.978001
0.977972
0.977943
0.977914
0.977886
0.977857
0.977826
0.977793
0.978349
0.978316
0.978285
0.978256
0.978226
0.978197
0.978168
0.978139
0.97811
0.97808
0.978051
0.978022
0.977993
0.977963
0.977934
0.977905
0.977876
0.977847
0.977817
0.977788
0.977759
0.97773
0.977701
0.977671
0.97764
0.977608
0.978169
0.978136
0.978105
0.978075
0.978046
0.978016
0.977987
0.977957
0.977928
0.977898
0.977869
0.97784
0.97781
0.977781
0.977751
0.977722
0.977692
0.977663
0.977633
0.977604
0.977574
0.977545
0.977516
0.977486
0.977455
0.977422
0.977989
0.977956
0.977924
0.977895
0.977865
0.977835
0.977806
0.977776
0.977746
0.977717
0.977687
0.977657
0.977627
0.977598
0.977568
0.977538
0.977509
0.977479
0.977449
0.977419
0.97739
0.97736
0.97733
0.977301
0.977269
0.977236
0.97781
0.977776
0.977744
0.977714
0.977684
0.977654
0.977625
0.977595
0.977565
0.977535
0.977505
0.977475
0.977445
0.977415
0.977385
0.977355
0.977325
0.977295
0.977265
0.977235
0.977205
0.977175
0.977145
0.977115
0.977084
0.97705
0.97763
0.977596
0.977564
0.977534
0.977504
0.977474
0.977443
0.977413
0.977383
0.977353
0.977323
0.977292
0.977262
0.977232
0.977202
0.977172
0.977141
0.977111
0.977081
0.977051
0.977021
0.97699
0.97696
0.97693
0.976898
0.976864
0.97745
0.977416
0.977384
0.977353
0.977323
0.977293
0.977262
0.977232
0.977201
0.977171
0.97714
0.97711
0.97708
0.977049
0.977019
0.976988
0.976958
0.976927
0.976897
0.976866
0.976836
0.976806
0.976775
0.976745
0.976713
0.976678
0.977271
0.977236
0.977204
0.977173
0.977142
0.977112
0.977081
0.97705
0.97702
0.976989
0.976958
0.976928
0.976897
0.976866
0.976836
0.976805
0.976774
0.976743
0.976713
0.976682
0.976651
0.976621