/*--------------------------------*- C++ -*----------------------------------*\
  =========                 |
  \\      /  F ield         | OpenFOAM: The Open Source CFD Toolbox
   \\    /   O peration     | Website:  https://openfoam.org
    \\  /    A nd           | Version:  11
     \\/     M anipulation  |
\*---------------------------------------------------------------------------*/
FoamFile
{
    format      ascii;
    class       volScalarField;
    location    "2000";
    object      p;
}
// * * * * * * * * * * * * * * * * * * * * * * * * * * * * * * * * * * * * * //

dimensions      [0 2 -2 0 0 0 0];

internalField   nonuniform List<scalar> 
406587
(
0.999859
0.999859
0.999859
0.999859
0.999859
0.999858
0.999858
0.999858
0.999858
0.999858
0.999858
0.999858
0.999858
0.999858
0.999858
0.999858
0.999858
0.999858
0.999858
0.999858
0.999857
0.999857
0.999857
0.999857
0.999857
0.999857
0.999857
0.999857
0.999857
0.999857
0.999857
0.999857
0.999857
0.999857
0.999857
0.999856
0.999856
0.999856
0.999856
0.999856
0.999856
0.999856
0.999856
0.999856
0.999856
0.999856
0.999856
0.999856
0.999856
0.999855
0.999855
0.999855
0.999855
0.999855
0.999855
0.999855
0.999855
0.999855
0.999855
0.999855
0.999855
0.999855
0.999855
0.999855
0.999854
0.999854
0.999854
0.999854
0.999854
0.999854
0.999854
0.999854
0.999854
0.999854
0.999854
0.999854
0.999854
0.999854
0.999854
0.999853
0.999853
0.999853
0.999853
0.999853
0.999853
0.999853
0.999577
0.999576
0.999576
0.999576
0.999576
0.999575
0.999575
0.999575
0.999575
0.999575
0.999574
0.999574
0.999574
0.999574
0.999574
0.999573
0.999573
0.999573
0.999573
0.999573
0.999572
0.999572
0.999572
0.999572
0.999572
0.999571
0.999571
0.999571
0.999571
0.999571
0.99957
0.99957
0.99957
0.99957
0.99957
0.999569
0.999569
0.999569
0.999569
0.999569
0.999568
0.999568
0.999568
0.999568
0.999567
0.999567
0.999567
0.999567
0.999567
0.999566
0.999566
0.999566
0.999566
0.999566
0.999565
0.999565
0.999565
0.999565
0.999565
0.999564
0.999564
0.999564
0.999564
0.999564
0.999563
0.999563
0.999563
0.999563
0.999563
0.999562
0.999562
0.999562
0.999562
0.999562
0.999561
0.999561
0.999561
0.999561
0.999561
0.99956
0.99956
0.99956
0.99956
0.99956
0.999559
0.999559
0.999294
0.999294
0.999294
0.999293
0.999293
0.999293
0.999292
0.999292
0.999291
0.999291
0.999291
0.99929
0.99929
0.99929
0.999289
0.999289
0.999289
0.999288
0.999288
0.999288
0.999287
0.999287
0.999287
0.999286
0.999286
0.999286
0.999285
0.999285
0.999285
0.999284
0.999284
0.999284
0.999283
0.999283
0.999283
0.999282
0.999282
0.999282
0.999281
0.999281
0.999281
0.99928
0.99928
0.99928
0.999279
0.999279
0.999279
0.999278
0.999278
0.999278
0.999277
0.999277
0.999277
0.999276
0.999276
0.999276
0.999275
0.999275
0.999275
0.999274
0.999274
0.999274
0.999273
0.999273
0.999272
0.999272
0.999272
0.999271
0.999271
0.999271
0.99927
0.99927
0.99927
0.999269
0.999269
0.999269
0.999268
0.999268
0.999268
0.999267
0.999267
0.999267
0.999266
0.999266
0.999266
0.999265
0.999012
0.999011
0.999011
0.99901
0.99901
0.99901
0.999009
0.999009
0.999008
0.999008
0.999007
0.999007
0.999006
0.999006
0.999005
0.999005
0.999004
0.999004
0.999003
0.999003
0.999002
0.999002
0.999001
0.999001
0.999
0.999
0.999
0.998999
0.998999
0.998998
0.998998
0.998997
0.998997
0.998996
0.998996
0.998995
0.998995
0.998994
0.998994
0.998993
0.998993
0.998992
0.998992
0.998991
0.998991
0.998991
0.99899
0.99899
0.998989
0.998989
0.998988
0.998988
0.998987
0.998987
0.998986
0.998986
0.998985
0.998985
0.998984
0.998984
0.998983
0.998983
0.998982
0.998982
0.998982
0.998981
0.998981
0.99898
0.99898
0.998979
0.998979
0.998978
0.998978
0.998977
0.998977
0.998976
0.998976
0.998975
0.998975
0.998974
0.998974
0.998973
0.998973
0.998973
0.998972
0.998971
0.99873
0.998729
0.998728
0.998728
0.998727
0.998727
0.998726
0.998725
0.998725
0.998724
0.998723
0.998723
0.998722
0.998722
0.998721
0.99872
0.99872
0.998719
0.998719
0.998718
0.998717
0.998717
0.998716
0.998716
0.998715
0.998714
0.998714
0.998713
0.998712
0.998712
0.998711
0.998711
0.99871
0.998709
0.998709
0.998708
0.998708
0.998707
0.998706
0.998706
0.998705
0.998705
0.998704
0.998703
0.998703
0.998702
0.998702
0.998701
0.9987
0.9987
0.998699
0.998698
0.998698
0.998697
0.998697
0.998696
0.998695
0.998695
0.998694
0.998694
0.998693
0.998692
0.998692
0.998691
0.998691
0.99869
0.998689
0.998689
0.998688
0.998687
0.998687
0.998686
0.998686
0.998685
0.998684
0.998684
0.998683
0.998683
0.998682
0.998681
0.998681
0.99868
0.99868
0.998679
0.998678
0.998678
0.998447
0.998447
0.998446
0.998445
0.998444
0.998444
0.998443
0.998442
0.998441
0.998441
0.99844
0.998439
0.998438
0.998438
0.998437
0.998436
0.998435
0.998435
0.998434
0.998433
0.998432
0.998432
0.998431
0.99843
0.998429
0.998429
0.998428
0.998427
0.998426
0.998426
0.998425
0.998424
0.998423
0.998423
0.998422
0.998421
0.99842
0.99842
0.998419
0.998418
0.998417
0.998417
0.998416
0.998415
0.998414
0.998414
0.998413
0.998412
0.998411
0.998411
0.99841
0.998409
0.998409
0.998408
0.998407
0.998406
0.998406
0.998405
0.998404
0.998403
0.998403
0.998402
0.998401
0.9984
0.9984
0.998399
0.998398
0.998397
0.998397
0.998396
0.998395
0.998394
0.998394
0.998393
0.998392
0.998391
0.998391
0.99839
0.998389
0.998388
0.998388
0.998387
0.998386
0.998385
0.998385
0.998384
0.998165
0.998164
0.998163
0.998162
0.998161
0.998161
0.99816
0.998159
0.998158
0.998157
0.998156
0.998155
0.998154
0.998154
0.998153
0.998152
0.998151
0.99815
0.998149
0.998148
0.998147
0.998146
0.998146
0.998145
0.998144
0.998143
0.998142
0.998141
0.99814
0.998139
0.998139
0.998138
0.998137
0.998136
0.998135
0.998134
0.998133
0.998132
0.998131
0.998131
0.99813
0.998129
0.998128
0.998127
0.998126
0.998125
0.998124
0.998124
0.998123
0.998122
0.998121
0.99812
0.998119
0.998118
0.998117
0.998117
0.998116
0.998115
0.998114
0.998113
0.998112
0.998111
0.99811
0.998109
0.998109
0.998108
0.998107
0.998106
0.998105
0.998104
0.998103
0.998102
0.998102
0.998101
0.9981
0.998099
0.998098
0.998097
0.998096
0.998095
0.998094
0.998094
0.998093
0.998092
0.998091
0.99809
0.997883
0.997882
0.997881
0.99788
0.997879
0.997878
0.997877
0.997876
0.997875
0.997874
0.997872
0.997871
0.99787
0.997869
0.997868
0.997867
0.997866
0.997865
0.997864
0.997863
0.997862
0.997861
0.99786
0.997859
0.997858
0.997857
0.997856
0.997855
0.997854
0.997853
0.997852
0.997851
0.99785
0.997849
0.997848
0.997847
0.997846
0.997845
0.997844
0.997843
0.997842
0.997841
0.99784
0.997839
0.997838
0.997837
0.997836
0.997835
0.997834
0.997833
0.997832
0.997831
0.99783
0.997829
0.997828
0.997827
0.997826
0.997825
0.997824
0.997823
0.997822
0.997821
0.99782
0.997819
0.997818
0.997817
0.997816
0.997815
0.997814
0.997813
0.997812
0.997811
0.997809
0.997808
0.997807
0.997806
0.997805
0.997804
0.997803
0.997802
0.997801
0.9978
0.997799
0.997798
0.997797
0.997796
0.997601
0.997599
0.997598
0.997597
0.997596
0.997595
0.997593
0.997592
0.997591
0.99759
0.997589
0.997588
0.997587
0.997585
0.997584
0.997583
0.997582
0.997581
0.99758
0.997578
0.997577
0.997576
0.997575
0.997574
0.997573
0.997572
0.99757
0.997569
0.997568
0.997567
0.997566
0.997565
0.997563
0.997562
0.997561
0.99756
0.997559
0.997558
0.997557
0.997555
0.997554
0.997553
0.997552
0.997551
0.99755
0.997549
0.997547
0.997546
0.997545
0.997544
0.997543
0.997542
0.99754
0.997539
0.997538
0.997537
0.997536
0.997535
0.997534
0.997532
0.997531
0.99753
0.997529
0.997528
0.997527
0.997525
0.997524
0.997523
0.997522
0.997521
0.99752
0.997519
0.997517
0.997516
0.997515
0.997514
0.997513
0.997512
0.997511
0.997509
0.997508
0.997507
0.997506
0.997505
0.997504
0.997502
0.997318
0.997317
0.997315
0.997314
0.997313
0.997312
0.99731
0.997309
0.997308
0.997306
0.997305
0.997304
0.997303
0.997301
0.9973
0.997299
0.997297
0.997296
0.997295
0.997294
0.997292
0.997291
0.99729
0.997288
0.997287
0.997286
0.997285
0.997283
0.997282
0.997281
0.997279
0.997278
0.997277
0.997276
0.997274
0.997273
0.997272
0.99727
0.997269
0.997268
0.997267
0.997265
0.997264
0.997263
0.997261
0.99726
0.997259
0.997258
0.997256
0.997255
0.997254
0.997252
0.997251
0.99725
0.997249
0.997247
0.997246
0.997245
0.997243
0.997242
0.997241
0.99724
0.997238
0.997237
0.997236
0.997234
0.997233
0.997232
0.997231
0.997229
0.997228
0.997227
0.997225
0.997224
0.997223
0.997222
0.99722
0.997219
0.997218
0.997216
0.997215
0.997214
0.997212
0.997211
0.99721
0.997208
0.997036
0.997034
0.997033
0.997031
0.99703
0.997029
0.997027
0.997026
0.997024
0.997023
0.997022
0.99702
0.997019
0.997017
0.997016
0.997014
0.997013
0.997012
0.99701
0.997009
0.997007
0.997006
0.997004
0.997003
0.997002
0.997
0.996999
0.996997
0.996996
0.996994
0.996993
0.996992
0.99699
0.996989
0.996987
0.996986
0.996985
0.996983
0.996982
0.99698
0.996979
0.996977
0.996976
0.996975
0.996973
0.996972
0.99697
0.996969
0.996967
0.996966
0.996965
0.996963
0.996962
0.99696
0.996959
0.996957
0.996956
0.996955
0.996953
0.996952
0.99695
0.996949
0.996948
0.996946
0.996945
0.996943
0.996942
0.99694
0.996939
0.996938
0.996936
0.996935
0.996933
0.996932
0.99693
0.996929
0.996928
0.996926
0.996925
0.996923
0.996922
0.99692
0.996919
0.996918
0.996916
0.996915
0.996754
0.996752
0.99675
0.996749
0.996747
0.996746
0.996744
0.996743
0.996741
0.996739
0.996738
0.996736
0.996735
0.996733
0.996732
0.99673
0.996729
0.996727
0.996725
0.996724
0.996722
0.996721
0.996719
0.996718
0.996716
0.996714
0.996713
0.996711
0.99671
0.996708
0.996707
0.996705
0.996704
0.996702
0.9967
0.996699
0.996697
0.996696
0.996694
0.996693
0.996691
0.99669
0.996688
0.996686
0.996685
0.996683
0.996682
0.99668
0.996679
0.996677
0.996676
0.996674
0.996672
0.996671
0.996669
0.996668
0.996666
0.996665
0.996663
0.996662
0.99666
0.996658
0.996657
0.996655
0.996654
0.996652
0.996651
0.996649
0.996647
0.996646
0.996644
0.996643
0.996641
0.99664
0.996638
0.996637
0.996635
0.996633
0.996632
0.99663
0.996629
0.996627
0.996626
0.996624
0.996622
0.996621
0.996471
0.99647
0.996468
0.996466
0.996464
0.996463
0.996461
0.996459
0.996458
0.996456
0.996454
0.996453
0.996451
0.996449
0.996447
0.996446
0.996444
0.996442
0.996441
0.996439
0.996437
0.996436
0.996434
0.996432
0.99643
0.996429
0.996427
0.996425
0.996424
0.996422
0.99642
0.996419
0.996417
0.996415
0.996414
0.996412
0.99641
0.996408
0.996407
0.996405
0.996403
0.996402
0.9964
0.996398
0.996397
0.996395
0.996393
0.996392
0.99639
0.996388
0.996386
0.996385
0.996383
0.996381
0.99638
0.996378
0.996376
0.996375
0.996373
0.996371
0.99637
0.996368
0.996366
0.996364
0.996363
0.996361
0.996359
0.996358
0.996356
0.996354
0.996353
0.996351
0.996349
0.996347
0.996346
0.996344
0.996342
0.996341
0.996339
0.996337
0.996336
0.996334
0.996332
0.996331
0.996329
0.996327
0.996189
0.996187
0.996185
0.996183
0.996182
0.99618
0.996178
0.996176
0.996174
0.996172
0.996171
0.996169
0.996167
0.996165
0.996163
0.996161
0.99616
0.996158
0.996156
0.996154
0.996152
0.99615
0.996149
0.996147
0.996145
0.996143
0.996141
0.996139
0.996138
0.996136
0.996134
0.996132
0.99613
0.996128
0.996127
0.996125
0.996123
0.996121
0.996119
0.996117
0.996116
0.996114
0.996112
0.99611
0.996108
0.996107
0.996105
0.996103
0.996101
0.996099
0.996097
0.996096
0.996094
0.996092
0.99609
0.996088
0.996086
0.996085
0.996083
0.996081
0.996079
0.996077
0.996075
0.996074
0.996072
0.99607
0.996068
0.996066
0.996064
0.996063
0.996061
0.996059
0.996057
0.996055
0.996053
0.996052
0.99605
0.996048
0.996046
0.996044
0.996042
0.996041
0.996039
0.996037
0.996035
0.996033
0.995907
0.995905
0.995903
0.995901
0.995899
0.995897
0.995895
0.995893
0.995891
0.995889
0.995887
0.995885
0.995883
0.995881
0.995879
0.995877
0.995875
0.995873
0.995871
0.995869
0.995867
0.995865
0.995863
0.995861
0.995859
0.995857
0.995855
0.995853
0.995852
0.99585
0.995848
0.995846
0.995844
0.995842
0.99584
0.995838
0.995836
0.995834
0.995832
0.99583
0.995828
0.995826
0.995824
0.995822
0.99582
0.995818
0.995816
0.995814
0.995812
0.99581
0.995808
0.995806
0.995804
0.995802
0.9958
0.995798
0.995797
0.995795
0.995793
0.995791
0.995789
0.995787
0.995785
0.995783
0.995781
0.995779
0.995777
0.995775
0.995773
0.995771
0.995769
0.995767
0.995765
0.995763
0.995761
0.995759
0.995757
0.995755
0.995753
0.995751
0.995749
0.995747
0.995745
0.995743
0.995741
0.995739
0.995625
0.995622
0.99562
0.995618
0.995616
0.995614
0.995612
0.99561
0.995607
0.995605
0.995603
0.995601
0.995599
0.995597
0.995595
0.995593
0.995591
0.995589
0.995586
0.995584
0.995582
0.99558
0.995578
0.995576
0.995574
0.995572
0.99557
0.995568
0.995565
0.995563
0.995561
0.995559
0.995557
0.995555
0.995553
0.995551
0.995549
0.995547
0.995544
0.995542
0.99554
0.995538
0.995536
0.995534
0.995532
0.99553
0.995528
0.995526
0.995523
0.995521
0.995519
0.995517
0.995515
0.995513
0.995511
0.995509
0.995507
0.995505
0.995502
0.9955
0.995498
0.995496
0.995494
0.995492
0.99549
0.995488
0.995486
0.995484
0.995481
0.995479
0.995477
0.995475
0.995473
0.995471
0.995469
0.995467
0.995465
0.995463
0.99546
0.995458
0.995456
0.995454
0.995452
0.99545
0.995448
0.995445
0.995342
0.99534
0.995337
0.995335
0.995333
0.995331
0.995329
0.995326
0.995324
0.995322
0.99532
0.995317
0.995315
0.995313
0.995311
0.995308
0.995306
0.995304
0.995302
0.995299
0.995297
0.995295
0.995293
0.995291
0.995288
0.995286
0.995284
0.995282
0.995279
0.995277
0.995275
0.995273
0.99527
0.995268
0.995266
0.995264
0.995261
0.995259
0.995257
0.995255
0.995253
0.99525
0.995248
0.995246
0.995244
0.995241
0.995239
0.995237
0.995235
0.995232
0.99523
0.995228
0.995226
0.995223
0.995221
0.995219
0.995217
0.995214
0.995212
0.99521
0.995208
0.995206
0.995203
0.995201
0.995199
0.995197
0.995194
0.995192
0.99519
0.995188
0.995185
0.995183
0.995181
0.995179
0.995176
0.995174
0.995172
0.99517
0.995168
0.995165
0.995163
0.995161
0.995159
0.995156
0.995154
0.995152
0.99506
0.995057
0.995055
0.995052
0.99505
0.995048
0.995045
0.995043
0.995041
0.995038
0.995036
0.995034
0.995031
0.995029
0.995026
0.995024
0.995022
0.995019
0.995017
0.995015
0.995012
0.99501
0.995007
0.995005
0.995003
0.995
0.994998
0.994996
0.994993
0.994991
0.994988
0.994986
0.994984
0.994981
0.994979
0.994977
0.994974
0.994972
0.99497
0.994967
0.994965
0.994962
0.99496
0.994958
0.994955
0.994953
0.994951
0.994948
0.994946
0.994943
0.994941
0.994939
0.994936
0.994934
0.994932
0.994929
0.994927
0.994924
0.994922
0.99492
0.994917
0.994915
0.994913
0.99491
0.994908
0.994905
0.994903
0.994901
0.994898
0.994896
0.994894
0.994891
0.994889
0.994887
0.994884
0.994882
0.994879
0.994877
0.994875
0.994872
0.99487
0.994868
0.994865
0.994863
0.99486
0.994858
0.994778
0.994775
0.994772
0.99477
0.994767
0.994765
0.994762
0.99476
0.994757
0.994755
0.994752
0.99475
0.994747
0.994745
0.994742
0.99474
0.994737
0.994735
0.994732
0.99473
0.994727
0.994725
0.994722
0.99472
0.994717
0.994715
0.994712
0.99471
0.994707
0.994705
0.994702
0.9947
0.994697
0.994695
0.994692
0.99469
0.994687
0.994685
0.994682
0.99468
0.994677
0.994675
0.994672
0.99467
0.994667
0.994665
0.994662
0.99466
0.994657
0.994654
0.994652
0.994649
0.994647
0.994644
0.994642
0.994639
0.994637
0.994634
0.994632
0.994629
0.994627
0.994624
0.994622
0.994619
0.994617
0.994614
0.994612
0.994609
0.994607
0.994604
0.994602
0.994599
0.994597
0.994594
0.994592
0.994589
0.994587
0.994584
0.994582
0.994579
0.994577
0.994574
0.994572
0.994569
0.994567
0.994564
0.994495
0.994493
0.99449
0.994487
0.994484
0.994482
0.994479
0.994477
0.994474
0.994471
0.994469
0.994466
0.994463
0.994461
0.994458
0.994455
0.994453
0.99445
0.994447
0.994445
0.994442
0.99444
0.994437
0.994434
0.994432
0.994429
0.994426
0.994424
0.994421
0.994418
0.994416
0.994413
0.99441
0.994408
0.994405
0.994403
0.9944
0.994397
0.994395
0.994392
0.994389
0.994387
0.994384
0.994381
0.994379
0.994376
0.994373
0.994371
0.994368
0.994366
0.994363
0.99436
0.994358
0.994355
0.994352
0.99435
0.994347
0.994344
0.994342
0.994339
0.994336
0.994334
0.994331
0.994329
0.994326
0.994323
0.994321
0.994318
0.994315
0.994313
0.99431
0.994307
0.994305
0.994302
0.994299
0.994297
0.994294
0.994292
0.994289
0.994286
0.994284
0.994281
0.994278
0.994276
0.994273
0.99427
0.994213
0.99421
0.994207
0.994204
0.994202
0.994199
0.994196
0.994193
0.99419
0.994188
0.994185
0.994182
0.994179
0.994177
0.994174
0.994171
0.994168
0.994165
0.994163
0.99416
0.994157
0.994154
0.994152
0.994149
0.994146
0.994143
0.99414
0.994138
0.994135
0.994132
0.994129
0.994127
0.994124
0.994121
0.994118
0.994116
0.994113
0.99411
0.994107
0.994104
0.994102
0.994099
0.994096
0.994093
0.994091
0.994088
0.994085
0.994082
0.994079
0.994077
0.994074
0.994071
0.994068
0.994066
0.994063
0.99406
0.994057
0.994054
0.994052
0.994049
0.994046
0.994043
0.994041
0.994038
0.994035
0.994032
0.994029
0.994027
0.994024
0.994021
0.994018
0.994016
0.994013
0.99401
0.994007
0.994004
0.994002
0.993999
0.993996
0.993993
0.993991
0.993988
0.993985
0.993982
0.993979
0.993976
0.993931
0.993928
0.993925
0.993922
0.993919
0.993916
0.993913
0.99391
0.993907
0.993904
0.993901
0.993898
0.993895
0.993893
0.99389
0.993887
0.993884
0.993881
0.993878
0.993875
0.993872
0.993869
0.993866
0.993863
0.99386
0.993858
0.993855
0.993852
0.993849
0.993846
0.993843
0.99384
0.993837
0.993834
0.993831
0.993828
0.993826
0.993823
0.99382
0.993817
0.993814
0.993811
0.993808
0.993805
0.993802
0.993799
0.993796
0.993794
0.993791
0.993788
0.993785
0.993782
0.993779
0.993776
0.993773
0.99377
0.993767
0.993764
0.993761
0.993759
0.993756
0.993753
0.99375
0.993747
0.993744
0.993741
0.993738
0.993735
0.993732
0.993729
0.993726
0.993724
0.993721
0.993718
0.993715
0.993712
0.993709
0.993706
0.993703
0.9937
0.993697
0.993694
0.993692
0.993689
0.993686
0.993682
0.993649
0.993645
0.993642
0.993639
0.993636
0.993633
0.99363
0.993627
0.993624
0.993621
0.993618
0.993615
0.993612
0.993608
0.993605
0.993602
0.993599
0.993596
0.993593
0.99359
0.993587
0.993584
0.993581
0.993578
0.993575
0.993572
0.993569
0.993566
0.993563
0.99356
0.993557
0.993554
0.993551
0.993548
0.993544
0.993541
0.993538
0.993535
0.993532
0.993529
0.993526
0.993523
0.99352
0.993517
0.993514
0.993511
0.993508
0.993505
0.993502
0.993499
0.993496
0.993493
0.99349
0.993487
0.993483
0.99348
0.993477
0.993474
0.993471
0.993468
0.993465
0.993462
0.993459
0.993456
0.993453
0.99345
0.993447
0.993444
0.993441
0.993438
0.993435
0.993432
0.993429
0.993426
0.993423
0.993419
0.993416
0.993413
0.99341
0.993407
0.993404
0.993401
0.993398
0.993395
0.993392
0.993388
0.993366
0.993363
0.993359
0.993356
0.993353
0.99335
0.993347
0.993344
0.99334
0.993337
0.993334
0.993331
0.993328
0.993324
0.993321
0.993318
0.993315
0.993312
0.993308
0.993305
0.993302
0.993299
0.993296
0.993293
0.993289
0.993286
0.993283
0.99328
0.993277
0.993273
0.99327
0.993267
0.993264
0.993261
0.993258
0.993254
0.993251
0.993248
0.993245
0.993242
0.993238
0.993235
0.993232
0.993229
0.993226
0.993223
0.993219
0.993216
0.993213
0.99321
0.993207
0.993203
0.9932
0.993197
0.993194
0.993191
0.993188
0.993184
0.993181
0.993178
0.993175
0.993172
0.993168
0.993165
0.993162
0.993159
0.993156
0.993152
0.993149
0.993146
0.993143
0.99314
0.993137
0.993133
0.99313
0.993127
0.993124
0.993121
0.993117
0.993114
0.993111
0.993108
0.993105
0.993102
0.993098
0.993095
0.993084
0.99308
0.993077
0.993074
0.99307
0.993067
0.993064
0.99306
0.993057
0.993054
0.99305
0.993047
0.993044
0.99304
0.993037
0.993034
0.99303
0.993027
0.993024
0.99302
0.993017
0.993014
0.99301
0.993007
0.993004
0.993001
0.992997
0.992994
0.992991
0.992987
0.992984
0.992981
0.992977
0.992974
0.992971
0.992967
0.992964
0.992961
0.992957
0.992954
0.992951
0.992947
0.992944
0.992941
0.992937
0.992934
0.992931
0.992927
0.992924
0.992921
0.992918
0.992914
0.992911
0.992908
0.992904
0.992901
0.992898
0.992894
0.992891
0.992888
0.992884
0.992881
0.992878
0.992874
0.992871
0.992868
0.992864
0.992861
0.992858
0.992854
0.992851
0.992848
0.992844
0.992841
0.992838
0.992835
0.992831
0.992828
0.992825
0.992821
0.992818
0.992815
0.992811
0.992808
0.992804
0.992801
0.992802
0.992798
0.992794
0.992791
0.992787
0.992784
0.99278
0.992777
0.992774
0.99277
0.992767
0.992763
0.99276
0.992756
0.992753
0.992749
0.992746
0.992742
0.992739
0.992736
0.992732
0.992729
0.992725
0.992722
0.992718
0.992715
0.992711
0.992708
0.992704
0.992701
0.992698
0.992694
0.992691
0.992687
0.992684
0.99268
0.992677
0.992673
0.99267
0.992666
0.992663
0.99266
0.992656
0.992653
0.992649
0.992646
0.992642
0.992639
0.992635
0.992632
0.992628
0.992625
0.992622
0.992618
0.992615
0.992611
0.992608
0.992604
0.992601
0.992597
0.992594
0.99259
0.992587
0.992584
0.99258
0.992577
0.992573
0.99257
0.992566
0.992563
0.992559
0.992556
0.992552
0.992549
0.992546
0.992542
0.992539
0.992535
0.992532
0.992528
0.992525
0.992521
0.992518
0.992514
0.992511
0.992507
0.992519
0.992516
0.992512
0.992508
0.992505
0.992501
0.992497
0.992494
0.99249
0.992487
0.992483
0.992479
0.992476
0.992472
0.992469
0.992465
0.992461
0.992458
0.992454
0.992451
0.992447
0.992444
0.99244
0.992436
0.992433
0.992429
0.992426
0.992422
0.992418
0.992415
0.992411
0.992408
0.992404
0.9924
0.992397
0.992393
0.99239
0.992386
0.992382
0.992379
0.992375
0.992372
0.992368
0.992365
0.992361
0.992357
0.992354
0.99235
0.992347
0.992343
0.992339
0.992336
0.992332
0.992329
0.992325
0.992321
0.992318
0.992314
0.992311
0.992307
0.992303
0.9923
0.992296
0.992293
0.992289
0.992286
0.992282
0.992278
0.992275
0.992271
0.992268
0.992264
0.99226
0.992257
0.992253
0.99225
0.992246
0.992242
0.992239
0.992235
0.992232
0.992228
0.992224
0.992221
0.992217
0.992213
0.992237
0.992233
0.992229
0.992225
0.992222
0.992218
0.992214
0.992211
0.992207
0.992203
0.992199
0.992196
0.992192
0.992188
0.992184
0.992181
0.992177
0.992173
0.99217
0.992166
0.992162
0.992158
0.992155
0.992151
0.992147
0.992143
0.99214
0.992136
0.992132
0.992129
0.992125
0.992121
0.992117
0.992114
0.99211
0.992106
0.992102
0.992099
0.992095
0.992091
0.992088
0.992084
0.99208
0.992076
0.992073
0.992069
0.992065
0.992061
0.992058
0.992054
0.99205
0.992047
0.992043
0.992039
0.992035
0.992032
0.992028
0.992024
0.99202
0.992017
0.992013
0.992009
0.992006
0.992002
0.991998
0.991994
0.991991
0.991987
0.991983
0.99198
0.991976
0.991972
0.991968
0.991965
0.991961
0.991957
0.991953
0.99195
0.991946
0.991942
0.991939
0.991935
0.991931
0.991927
0.991923
0.991919
0.991955
0.991951
0.991947
0.991943
0.991939
0.991935
0.991931
0.991927
0.991923
0.99192
0.991916
0.991912
0.991908
0.991904
0.9919
0.991896
0.991893
0.991889
0.991885
0.991881
0.991877
0.991873
0.991869
0.991865
0.991862
0.991858
0.991854
0.99185
0.991846
0.991842
0.991838
0.991835
0.991831
0.991827
0.991823
0.991819
0.991815
0.991811
0.991808
0.991804
0.9918
0.991796
0.991792
0.991788
0.991784
0.991781
0.991777
0.991773
0.991769
0.991765
0.991761
0.991757
0.991754
0.99175
0.991746
0.991742
0.991738
0.991734
0.99173
0.991726
0.991723
0.991719
0.991715
0.991711
0.991707
0.991703
0.991699
0.991696
0.991692
0.991688
0.991684
0.99168
0.991676
0.991672
0.991669
0.991665
0.991661
0.991657
0.991653
0.991649
0.991645
0.991642
0.991638
0.991634
0.99163
0.991625
0.991673
0.991668
0.991664
0.99166
0.991656
0.991652
0.991648
0.991644
0.99164
0.991636
0.991632
0.991628
0.991624
0.99162
0.991616
0.991612
0.991608
0.991604
0.9916
0.991596
0.991592
0.991588
0.991584
0.99158
0.991576
0.991572
0.991568
0.991564
0.99156
0.991556
0.991552
0.991548
0.991544
0.99154
0.991536
0.991532
0.991528
0.991524
0.99152
0.991516
0.991512
0.991508
0.991504
0.9915
0.991496
0.991492
0.991488
0.991484
0.99148
0.991476
0.991472
0.991468
0.991464
0.99146
0.991456
0.991452
0.991448
0.991444
0.99144
0.991436
0.991432
0.991428
0.991424
0.99142
0.991416
0.991412
0.991408
0.991404
0.9914
0.991396
0.991392
0.991388
0.991384
0.99138
0.991376
0.991372
0.991368
0.991364
0.99136
0.991356
0.991352
0.991348
0.991344
0.99134
0.991336
0.991332
0.99139
0.991386
0.991381
0.991377
0.991373
0.991369
0.991365
0.991361
0.991357
0.991353
0.991348
0.991344
0.99134
0.991336
0.991332
0.991328
0.991324
0.991319
0.991315
0.991311
0.991307
0.991303
0.991299
0.991295
0.991291
0.991286
0.991282
0.991278
0.991274
0.99127
0.991266
0.991262
0.991257
0.991253
0.991249
0.991245
0.991241
0.991237
0.991233
0.991229
0.991224
0.99122
0.991216
0.991212
0.991208
0.991204
0.9912
0.991195
0.991191
0.991187
0.991183
0.991179
0.991175
0.991171
0.991167
0.991162
0.991158
0.991154
0.99115
0.991146
0.991142
0.991138
0.991133
0.991129
0.991125
0.991121
0.991117
0.991113
0.991109
0.991105
0.9911
0.991096
0.991092
0.991088
0.991084
0.99108
0.991076
0.991071
0.991067
0.991063
0.991059
0.991055
0.991051
0.991047
0.991042
0.991038
0.991108
0.991103
0.991099
0.991095
0.99109
0.991086
0.991082
0.991078
0.991073
0.991069
0.991065
0.99106
0.991056
0.991052
0.991048
0.991043
0.991039
0.991035
0.991031
0.991026
0.991022
0.991018
0.991014
0.991009
0.991005
0.991001
0.990996
0.990992
0.990988
0.990984
0.990979
0.990975
0.990971
0.990967
0.990962
0.990958
0.990954
0.990949
0.990945
0.990941
0.990937
0.990932
0.990928
0.990924
0.99092
0.990915
0.990911
0.990907
0.990903
0.990898
0.990894
0.99089
0.990885
0.990881
0.990877
0.990873
0.990868
0.990864
0.99086
0.990856
0.990851
0.990847
0.990843
0.990839
0.990834
0.99083
0.990826
0.990821
0.990817
0.990813
0.990809
0.990804
0.9908
0.990796
0.990792
0.990787
0.990783
0.990779
0.990774
0.99077
0.990766
0.990762
0.990757
0.990753
0.990749
0.990744
0.990826
0.990821
0.990816
0.990812
0.990807
0.990803
0.990799
0.990794
0.99079
0.990785
0.990781
0.990777
0.990772
0.990768
0.990763
0.990759
0.990755
0.99075
0.990746
0.990741
0.990737
0.990733
0.990728
0.990724
0.990719
0.990715
0.990711
0.990706
0.990702
0.990697
0.990693
0.990689
0.990684
0.99068
0.990675
0.990671
0.990667
0.990662
0.990658
0.990653
0.990649
0.990645
0.99064
0.990636
0.990631
0.990627
0.990623
0.990618
0.990614
0.990609
0.990605
0.990601
0.990596
0.990592
0.990587
0.990583
0.990579
0.990574
0.99057
0.990565
0.990561
0.990556
0.990552
0.990548
0.990543
0.990539
0.990534
0.99053
0.990526
0.990521
0.990517
0.990512
0.990508
0.990504
0.990499
0.990495
0.99049
0.990486
0.990482
0.990477
0.990473
0.990468
0.990464
0.99046
0.990455
0.99045
0.990544
0.990539
0.990534
0.990529
0.990525
0.99052
0.990516
0.990511
0.990506
0.990502
0.990497
0.990493
0.990488
0.990484
0.990479
0.990475
0.99047
0.990466
0.990461
0.990457
0.990452
0.990447
0.990443
0.990438
0.990434
0.990429
0.990425
0.99042
0.990416
0.990411
0.990407
0.990402
0.990398
0.990393
0.990388
0.990384
0.990379
0.990375
0.99037
0.990366
0.990361
0.990357
0.990352
0.990348
0.990343
0.990339
0.990334
0.990329
0.990325
0.99032
0.990316
0.990311
0.990307
0.990302
0.990298
0.990293
0.990289
0.990284
0.99028
0.990275
0.99027
0.990266
0.990261
0.990257
0.990252
0.990248
0.990243
0.990239
0.990234
0.99023
0.990225
0.990221
0.990216
0.990211
0.990207
0.990202
0.990198
0.990193
0.990189
0.990184
0.99018
0.990175
0.990171
0.990166
0.990161
0.990156
0.990261
0.990256
0.990251
0.990246
0.990242
0.990237
0.990232
0.990228
0.990223
0.990218
0.990214
0.990209
0.990204
0.9902
0.990195
0.99019
0.990186
0.990181
0.990176
0.990172
0.990167
0.990162
0.990158
0.990153
0.990148
0.990144
0.990139
0.990134
0.99013
0.990125
0.99012
0.990116
0.990111
0.990106
0.990102
0.990097
0.990092
0.990088
0.990083
0.990078
0.990074
0.990069
0.990064
0.990059
0.990055
0.99005
0.990045
0.990041
0.990036
0.990031
0.990027
0.990022
0.990017
0.990013
0.990008
0.990003
0.989999
0.989994
0.989989
0.989985
0.98998
0.989975
0.989971
0.989966
0.989961
0.989957
0.989952
0.989947
0.989943
0.989938
0.989933
0.989929
0.989924
0.989919
0.989915
0.98991
0.989905
0.989901
0.989896
0.989891
0.989887
0.989882
0.989877
0.989873
0.989868
0.989862
0.989979
0.989974
0.989969
0.989964
0.989959
0.989954
0.989949
0.989945
0.98994
0.989935
0.98993
0.989925
0.98992
0.989916
0.989911
0.989906
0.989901
0.989896
0.989892
0.989887
0.989882
0.989877
0.989872
0.989868
0.989863
0.989858
0.989853
0.989848
0.989844
0.989839
0.989834
0.989829
0.989824
0.989819
0.989815
0.98981
0.989805
0.9898
0.989795
0.989791
0.989786
0.989781
0.989776
0.989771
0.989767
0.989762
0.989757
0.989752
0.989747
0.989743
0.989738
0.989733
0.989728
0.989723
0.989718
0.989714
0.989709
0.989704
0.989699
0.989694
0.98969
0.989685
0.98968
0.989675
0.98967
0.989666
0.989661
0.989656
0.989651
0.989646
0.989641
0.989637
0.989632
0.989627
0.989622
0.989617
0.989613
0.989608
0.989603
0.989598
0.989593
0.989589
0.989584
0.989579
0.989574
0.989569
0.989697
0.989691
0.989686
0.989681
0.989676
0.989671
0.989666
0.989661
0.989656
0.989651
0.989646
0.989641
0.989637
0.989632
0.989627
0.989622
0.989617
0.989612
0.989607
0.989602
0.989597
0.989592
0.989587
0.989582
0.989577
0.989572
0.989567
0.989562
0.989557
0.989552
0.989548
0.989543
0.989538
0.989533
0.989528
0.989523
0.989518
0.989513
0.989508
0.989503
0.989498
0.989493
0.989488
0.989483
0.989478
0.989473
0.989468
0.989463
0.989459
0.989454
0.989449
0.989444
0.989439
0.989434
0.989429
0.989424
0.989419
0.989414
0.989409
0.989404
0.989399
0.989394
0.989389
0.989384
0.989379
0.989374
0.989369
0.989365
0.98936
0.989355
0.98935
0.989345
0.98934
0.989335
0.98933
0.989325
0.98932
0.989315
0.98931
0.989305
0.9893
0.989295
0.98929
0.989285
0.98928
0.989275
0.989414
0.989409
0.989403
0.989398
0.989393
0.989388
0.989383
0.989378
0.989373
0.989368
0.989363
0.989358
0.989353
0.989348
0.989342
0.989337
0.989332
0.989327
0.989322
0.989317
0.989312
0.989307
0.989302
0.989297
0.989292
0.989287
0.989281
0.989276
0.989271
0.989266
0.989261
0.989256
0.989251
0.989246
0.989241
0.989236
0.989231
0.989226
0.989221
0.989215
0.98921
0.989205
0.9892
0.989195
0.98919
0.989185
0.98918
0.989175
0.98917
0.989165
0.98916
0.989154
0.989149
0.989144
0.989139
0.989134
0.989129
0.989124
0.989119
0.989114
0.989109
0.989104
0.989099
0.989093
0.989088
0.989083
0.989078
0.989073
0.989068
0.989063
0.989058
0.989053
0.989048
0.989043
0.989038
0.989033
0.989027
0.989022
0.989017
0.989012
0.989007
0.989002
0.988997
0.988992
0.988986
0.988981
0.989132
0.989126
0.989121
0.989116
0.98911
0.989105
0.9891
0.989095
0.98909
0.989084
0.989079
0.989074
0.989069
0.989063
0.989058
0.989053
0.989048
0.989043
0.989037
0.989032
0.989027
0.989022
0.989017
0.989011
0.989006
0.989001
0.988996
0.98899
0.988985
0.98898
0.988975
0.98897