/*--------------------------------*- C++ -*----------------------------------*\
  =========                 |
  \\      /  F ield         | OpenFOAM: The Open Source CFD Toolbox
   \\    /   O peration     | Website:  https://openfoam.org
    \\  /    A nd           | Version:  11
     \\/     M anipulation  |
\*---------------------------------------------------------------------------*/
FoamFile
{
    format      ascii;
    class       surfaceScalarField;
    location    "637";
    object      phi;
}
// * * * * * * * * * * * * * * * * * * * * * * * * * * * * * * * * * * * * * //

dimensions      [0 3 -1 0 0 0 0];

internalField   nonuniform List<scalar> 
288634
(
1.68856e-17
2.9237e-12
4.40603e-17
8.49262e-12
7.37854e-17
1.3783e-11
1.03897e-16
1.8795e-11
1.32329e-16
2.35284e-11
1.58185e-16
2.79834e-11
1.80045e-16
3.21599e-11
1.97337e-16
3.6058e-11
2.0994e-16
3.96776e-11
2.16986e-16
4.30187e-11
2.19105e-16
4.60814e-11
2.15255e-16
4.88656e-11
2.06837e-16
5.13715e-11
1.92917e-16
5.35988e-11
1.74627e-16
5.55478e-11
1.52356e-16
5.72183e-11
1.26576e-16
5.86104e-11
9.7778e-17
5.9724e-11
6.67754e-17
6.05593e-11
3.42828e-17
6.11161e-11
9.68408e-19
6.13945e-11
-3.23448e-17
6.13945e-11
-6.48621e-17
6.11161e-11
-9.58871e-17
6.05593e-11
-1.24731e-16
5.9724e-11
-1.5056e-16
5.86104e-11
-1.72897e-16
5.72183e-11
-1.91259e-16
5.55478e-11
-2.05265e-16
5.35988e-11
-2.1378e-16
5.13715e-11
-2.17732e-16
4.88657e-11
-2.1573e-16
4.60814e-11
-2.08799e-16
4.30187e-11
-1.96315e-16
3.96776e-11
-1.79166e-16
3.6058e-11
-1.574e-16
3.21599e-11
-1.31685e-16
2.79834e-11
-1.03361e-16
2.35284e-11
-7.34066e-17
1.8795e-11
-4.39361e-17
1.3783e-11
-1.69609e-17
8.49262e-12
2.9237e-12
1.0889e-17
2.92369e-12
3.58571e-17
8.49259e-12
6.72464e-17
1.3783e-11
1.00427e-16
1.87949e-11
1.32972e-16
2.35284e-11
1.62609e-16
2.79834e-11
1.88234e-16
3.21599e-11
2.08723e-16
3.6058e-11
2.23651e-16
3.96776e-11
2.32564e-16
4.30187e-11
2.3538e-16
4.60814e-11
2.32429e-16
4.88657e-11
2.23208e-16
5.13715e-11
2.08868e-16
5.35988e-11
1.8915e-16
5.55478e-11
1.65253e-16
5.72183e-11
1.37096e-16
5.86104e-11
1.06018e-16
5.97241e-11
7.24557e-17
6.05593e-11
3.7094e-17
6.11161e-11
9.50486e-19
6.13946e-11
-3.51689e-17
6.13946e-11
-7.05874e-17
6.11161e-11
-1.04157e-16
6.05593e-11
-1.35332e-16
5.97241e-11
-1.6352e-16
5.86104e-11
-1.87559e-16
5.72183e-11
-2.07325e-16
5.55478e-11
-2.2185e-16
5.35988e-11
-2.3113e-16
5.13715e-11
-2.34304e-16
4.88657e-11
-2.31552e-16
4.60814e-11
-2.22853e-16
4.30187e-11
-2.07979e-16
3.96776e-11
-1.87645e-16
3.6058e-11
-1.62081e-16
3.21599e-11
-1.32569e-16
2.79834e-11
-1.00135e-16
2.35284e-11
-6.71364e-17
1.87949e-11
-3.61113e-17
1.3783e-11
-1.09769e-17
8.49259e-12
2.92369e-12
7.50321e-18
2.92368e-12
2.75095e-17
8.49257e-12
5.49683e-17
1.3783e-11
8.58495e-17
1.87949e-11
1.17952e-16
2.35284e-11
1.48118e-16
2.79834e-11
1.75434e-16
3.21599e-11
1.98114e-16
3.60579e-11
2.15268e-16
3.96775e-11
2.26529e-16
4.30187e-11
2.31377e-16
4.60814e-11
2.29991e-16
4.88657e-11
2.22499e-16
5.13715e-11
2.09085e-16
5.35989e-11
1.90433e-16
5.55478e-11
1.66577e-16
5.72183e-11
1.38887e-16
5.86104e-11
1.07396e-16
5.97241e-11
7.33825e-17
6.05593e-11
3.76125e-17
6.11162e-11
9.84567e-19
6.13946e-11
-3.55822e-17
6.13946e-11
-7.14556e-17
6.11162e-11
-1.05447e-16
6.05593e-11
-1.37086e-16
5.97241e-11
-1.64786e-16
5.86104e-11
-1.88832e-16
5.72183e-11
-2.07523e-16
5.55478e-11
-2.21165e-16
5.35989e-11
-2.28721e-16
5.13715e-11
-2.30365e-16
4.88657e-11
-2.25602e-16
4.60814e-11
-2.14599e-16
4.30187e-11
-1.97522e-16
3.96775e-11
-1.75068e-16
3.60579e-11
-1.47788e-16
3.21599e-11
-1.17749e-16
2.79834e-11
-8.57497e-17
2.35284e-11
-5.49818e-17
1.87949e-11
-2.78576e-17
1.3783e-11
-7.7697e-18
8.49257e-12
2.92368e-12
6.02187e-18
2.92367e-12
2.22921e-17
8.49255e-12
4.54593e-17
1.3783e-11
7.27798e-17
1.87949e-11
1.017e-16
2.35283e-11
1.30331e-16
2.79833e-11
1.56549e-16
3.21598e-11
1.79051e-16
3.60579e-11
1.97026e-16
3.96775e-11
2.09335e-16
4.30187e-11
2.15968e-16
4.60814e-11
2.16097e-16
4.88657e-11
2.10495e-16
5.13715e-11
1.98663e-16
5.35989e-11
1.81579e-16
5.55478e-11
1.5954e-16
5.72183e-11
1.33214e-16
5.86104e-11
1.0353e-16
5.97241e-11
7.08531e-17
6.05594e-11
3.65353e-17
6.11162e-11
1.01203e-18
6.13946e-11
-3.44164e-17
6.13946e-11
-6.88802e-17
6.11162e-11
-1.01509e-16
6.05594e-11
-1.31387e-16
5.97241e-11
-1.5771e-16
5.86104e-11
-1.79984e-16
5.72183e-11
-1.97105e-16
5.55478e-11
-2.09207e-16
5.35989e-11
-2.14882e-16
5.13715e-11
-2.15043e-16
4.88657e-11
-2.08511e-16
4.60814e-11
-1.96474e-16
4.30187e-11
-1.78608e-16
3.96775e-11
-1.56283e-16
3.60579e-11
-1.30165e-16
3.21599e-11
-1.01586e-16
2.79833e-11
-7.27657e-17
2.35283e-11
-4.55025e-17
1.87949e-11
-2.25987e-17
1.3783e-11
-6.15961e-18
8.49255e-12
2.92367e-12
4.70899e-18
2.92367e-12
1.82417e-17
8.49254e-12
3.78659e-17
1.37829e-11
6.14014e-17
1.87949e-11
8.71198e-17
2.35283e-11
1.12886e-16
2.79833e-11
1.37429e-16
3.21598e-11
1.58809e-16
3.60579e-11
1.76499e-16
3.96775e-11
1.89056e-16
4.30187e-11
1.96389e-16
4.60814e-11
1.98101e-16
4.88657e-11
1.93793e-16
5.13715e-11
1.84135e-16
5.35989e-11
1.68833e-16
5.55478e-11
1.49017e-16
5.72184e-11
1.24617e-16
5.86105e-11
9.70123e-17
5.97241e-11
6.65249e-17
6.05594e-11
3.42961e-17
6.11162e-11
1.01958e-18
6.13947e-11
-3.21416e-17
6.13947e-11
-6.45408e-17
6.11162e-11
-9.49665e-17
6.05594e-11
-1.22794e-16
5.97241e-11
-1.47183e-16
5.86105e-11
-1.67269e-16
5.72184e-11
-1.82604e-16
5.55478e-11
-1.92567e-16
5.35989e-11
-1.96943e-16
5.13715e-11
-1.95551e-16
4.88657e-11
-1.88311e-16
4.60814e-11
-1.76058e-16
4.30187e-11
-1.58451e-16
3.96775e-11
-1.37307e-16
3.60579e-11
-1.12794e-16
3.21598e-11
-8.71162e-17
2.79833e-11
-6.14428e-17
2.35283e-11
-3.79461e-17
1.87949e-11
-1.85489e-17
1.37829e-11
-4.94598e-18
8.49254e-12
2.92367e-12
3.88689e-18
2.92367e-12
1.50401e-17
8.49253e-12
3.15555e-17
1.37829e-11
5.1552e-17
1.87948e-11
7.39878e-17
2.35283e-11
9.67094e-17
2.79833e-11
1.18725e-16
3.21598e-11
1.38598e-16
3.60579e-11
1.55069e-16
3.96775e-11
1.67577e-16
4.30187e-11
1.751e-16
4.60814e-11
1.77588e-16
4.88656e-11
1.74775e-16
5.13715e-11
1.66694e-16
5.35989e-11
1.53811e-16
5.55478e-11
1.35858e-16
5.72184e-11
1.14292e-16
5.86105e-11
8.88013e-17
5.97242e-11
6.11257e-17
6.05594e-11
3.14021e-17
6.11163e-11
9.93724e-19
6.13947e-11
-2.92758e-17
6.13947e-11
-5.91945e-17
6.11163e-11
-8.67885e-17
6.05594e-11
-1.12529e-16
5.97242e-11
-1.34067e-16
5.86105e-11
-1.52317e-16
5.72184e-11
-1.65216e-16
5.55478e-11
-1.73623e-16
5.35989e-11
-1.76487e-16
5.13715e-11
-1.74333e-16
4.88657e-11
-1.66882e-16
4.60814e-11
-1.54673e-16
4.30187e-11
-1.38277e-16
3.96775e-11
-1.18594e-16
3.60579e-11
-9.6641e-17
3.21598e-11
-7.39651e-17
2.79833e-11
-5.158e-17
2.35283e-11
-3.16063e-17
1.87948e-11
-1.52856e-17
1.37829e-11
-4.01941e-18
8.49253e-12
2.92367e-12
3.1095e-18
2.92366e-12
1.2402e-17
8.49252e-12
2.6237e-17
1.37829e-11
4.33161e-17
1.87948e-11
6.24187e-17
2.35283e-11
8.23302e-17
2.79833e-11
1.01687e-16
3.21598e-11
1.19419e-16
3.60579e-11
1.34576e-16
3.96775e-11
1.46193e-16
4.30186e-11
1.53902e-16
4.60814e-11
1.5675e-16
4.88656e-11
1.5512e-16
5.13715e-11
1.48481e-16
5.35989e-11
1.3712e-16
5.55479e-11
1.21856e-16
5.72184e-11
1.02376e-16
5.86105e-11
8.03219e-17
5.97242e-11
5.49528e-17
6.05595e-11
2.87361e-17
6.11163e-11
9.45025e-19
6.13947e-11
-2.66813e-17
6.13947e-11
-5.31194e-17
6.11163e-11
-7.8381e-17
6.05595e-11
-1.00709e-16
5.97242e-11
-1.20135e-16
5.86105e-11
-1.35712e-16
5.72184e-11
-1.47065e-16
5.55479e-11
-1.54039e-16
5.35989e-11
-1.55696e-16
5.13715e-11
-1.5318e-16
4.88656e-11
-1.45522e-16
4.60814e-11
-1.34202e-16
4.30186e-11
-1.19096e-16
3.96775e-11
-1.01582e-16
3.60579e-11
-8.22457e-17
3.21598e-11
-6.24063e-17
2.79833e-11
-4.33361e-17
2.35283e-11
-2.62794e-17
1.87948e-11
-1.26264e-17
1.37829e-11
-3.29791e-18
8.49252e-12
2.92366e-12
2.60094e-18
2.92366e-12
1.03156e-17
8.49251e-12
2.18519e-17
1.37829e-11
3.61986e-17
1.87948e-11
5.25321e-17
2.35282e-11
6.96092e-17
2.79832e-11
8.66351e-17
3.21598e-11
1.0216e-16
3.60578e-11
1.15854e-16
3.96775e-11
1.26381e-16
4.30186e-11
1.33596e-16
4.60814e-11
1.3686e-16
4.88656e-11
1.3578e-16
5.13715e-11
1.30528e-16
5.35989e-11
1.21062e-16
5.55479e-11
1.07761e-16
5.72184e-11
9.0888e-17
5.86105e-11
7.11768e-17
5.97242e-11
4.92124e-17
6.05595e-11
2.54546e-17
6.11163e-11
8.92007e-19
6.13947e-11
-2.34884e-17
6.13947e-11
-4.7483e-17
6.11163e-11
-6.93199e-17
6.05595e-11
-8.9315e-17
5.97242e-11
-1.06113e-16
5.86105e-11
-1.19732e-16
5.72184e-11
-1.29169e-16
5.55479e-11
-1.34755e-16
5.35989e-11
-1.35844e-16
5.13715e-11
-1.32904e-16
4.88656e-11
-1.25724e-16
4.60814e-11
-1.15478e-16
4.30186e-11
-1.01834e-16
3.96775e-11
-8.64883e-17
3.60578e-11
-6.9513e-17
3.21598e-11
-5.2483e-17
2.79832e-11
-3.61949e-17
2.35283e-11
-2.18685e-17
1.87948e-11
-1.04918e-17
1.37829e-11
-2.70598e-18
8.49251e-12
2.92366e-12
2.1146e-18
2.92366e-12
8.49513e-18
8.4925e-12
1.8211e-17
1.37829e-11
3.02369e-17
1.87948e-11
4.41515e-17
2.35282e-11
5.8658e-17
2.79832e-11
7.32431e-17
3.21598e-11
8.69886e-17
3.60578e-11
9.88295e-17
3.96774e-11
1.08554e-16
4.30186e-11
1.14875e-16
4.60814e-11
1.18225e-16
4.88656e-11
1.17601e-16
5.13715e-11
1.13569e-16
5.35989e-11
1.05784e-16
5.55479e-11
9.42526e-17
5.72184e-11
7.98245e-17
5.86105e-11
6.23176e-17
5.97242e-11
4.31084e-17
6.05595e-11
2.22543e-17
6.11163e-11
8.39536e-19
6.13948e-11
-2.03851e-17
6.13948e-11
-4.14789e-17
6.11163e-11
-6.05498e-17
6.05595e-11
-7.83392e-17
5.97242e-11
-9.26796e-17
5.86105e-11
-1.04525e-16
5.72184e-11
-1.12267e-16
5.55479e-11
-1.16624e-16
5.35989e-11
-1.17244e-16
5.13715e-11
-1.14207e-16
4.88656e-11
-1.07911e-16
4.60814e-11
-9.84615e-17
4.30186e-11
-8.66564e-17
3.96775e-11
-7.31103e-17
3.60578e-11
-5.85467e-17
3.21598e-11
-4.41136e-17
2.79832e-11
-3.0232e-17
2.35282e-11
-1.82296e-17
1.87948e-11
-8.6586e-18
1.37829e-11
-2.24786e-18
8.4925e-12
2.92366e-12
1.76949e-18
2.92365e-12
7.03605e-18
8.4925e-12
1.50916e-17
1.37829e-11
2.52657e-17
1.87948e-11
3.6868e-17
2.35282e-11
4.93408e-17
2.79832e-11
6.17807e-17
3.21597e-11
7.34761e-17
3.60578e-11
8.39602e-17
3.96774e-11
9.22636e-17
4.30186e-11
9.84827e-17
4.60813e-11
1.01264e-16
4.88656e-11
1.01462e-16
5.13715e-11
9.79738e-17
5.35989e-11
9.11631e-17
5.55479e-11
8.169e-17
5.72184e-11
6.89762e-17
5.86105e-11
5.45371e-17
5.97242e-11
3.73589e-17
6.05595e-11
1.97726e-17
6.11164e-11
7.86218e-19
6.13948e-11
-1.80064e-17
6.13948e-11
-3.58313e-17
6.11164e-11
-5.28646e-17
6.05595e-11
-6.75812e-17
5.97242e-11
-8.01984e-17
5.86105e-11
-8.99754e-17
5.72184e-11
-9.67334e-17
5.55479e-11
-1.00534e-16
5.35989e-11
-1.00321e-16
5.13715e-11
-9.78395e-17
4.88656e-11
-9.16359e-17
4.60813e-11
-8.35897e-17
4.30186e-11
-7.31417e-17
3.96774e-11
-6.16159e-17
3.60578e-11
-4.92216e-17
3.21597e-11
-3.68078e-17
2.79832e-11
-2.52467e-17
2.35282e-11
-1.50992e-17
1.87948e-11
-7.16432e-18
1.37829e-11
-1.8417e-18
8.4925e-12
2.92366e-12
1.42634e-18
2.92365e-12
5.83268e-18
8.49249e-12
1.24966e-17
1.37829e-11
2.09532e-17
1.87948e-11
3.08373e-17
2.35282e-11
4.12639e-17
2.79832e-11
5.18806e-17
3.21597e-11
6.19565e-17
3.60578e-11
7.09573e-17
3.96774e-11
7.83257e-17
4.30186e-11
8.36018e-17
4.60813e-11
8.66046e-17
4.88656e-11
8.65761e-17
5.13715e-11
8.39369e-17
5.35989e-11
7.84031e-17
5.55479e-11
7.02697e-17
5.72184e-11
5.95736e-17
5.86106e-11
4.69087e-17
5.97243e-11
3.26128e-17
6.05595e-11
1.69727e-17
6.11164e-11
7.34169e-19
6.13948e-11
-1.53118e-17
6.13948e-11
-3.11859e-17
6.11164e-11
-4.53346e-17
6.05595e-11
-5.82678e-17
5.97243e-11
-6.88622e-17
5.86106e-11
-7.72852e-17
5.72184e-11
-8.27603e-17
5.55479e-11
-8.56942e-17
5.35989e-11
-8.57025e-17
5.13715e-11
-8.29802e-17
4.88656e-11
-7.77157e-17
4.60813e-11
-7.0592e-17
4.30186e-11
-6.16214e-17
3.96774e-11
-5.17272e-17
3.60578e-11
-4.11363e-17
3.21597e-11
-3.07881e-17
2.79832e-11
-2.09357e-17
2.35282e-11
-1.25075e-17
1.87948e-11
-5.94619e-18
1.37829e-11
-1.51462e-18
8.49249e-12
2.92365e-12
1.22031e-18
2.92365e-12
4.79033e-18
8.49249e-12
1.04054e-17
1.37829e-11
1.73811e-17
1.87948e-11
2.56338e-17
2.35282e-11
3.43668e-17
2.79832e-11
4.34404e-17
3.21597e-11
5.20209e-17
3.60578e-11
5.97319e-17
3.96774e-11
6.62398e-17
4.30186e-11
7.05878e-17
4.60813e-11
7.33262e-17
4.88656e-11
7.34295e-17
5.13715e-11
7.14983e-17
5.35989e-11
6.70663e-17
5.55479e-11
6.0068e-17
5.72184e-11
5.11666e-17
5.86106e-11
4.00363e-17
5.97243e-11
2.78353e-17
6.05595e-11
1.44307e-17
6.11164e-11
6.85457e-19
6.13948e-11
-1.28712e-17
6.13948e-11
-2.65025e-17
6.11164e-11
-3.85566e-17
6.05595e-11
-4.99429e-17
5.97243e-11
-5.87408e-17
5.86106e-11
-6.60131e-17
5.72184e-11
-7.0384e-17
5.55479e-11
-7.25925e-17
5.35989e-11
-7.24667e-17
5.13715e-11
-6.99909e-17
4.88656e-11
-6.5653e-17
4.60813e-11
-5.93718e-17
4.30186e-11
-5.16947e-17
3.96774e-11
-4.32698e-17
3.60578e-11
-3.42415e-17
3.21597e-11
-2.55746e-17
2.79832e-11
-1.73582e-17
2.35282e-11
-1.04142e-17
1.87948e-11
-4.88038e-18
1.37829e-11
-1.26817e-18
8.49249e-12
2.92365e-12
9.70273e-19
2.92365e-12
3.94664e-18
8.49249e-12
8.50757e-18
1.37829e-11
1.44968e-17
1.87948e-11
2.12216e-17
2.35282e-11
2.87955e-17
2.79832e-11
3.62685e-17
3.21597e-11
4.3545e-17
3.60578e-11
5.01086e-17
3.96774e-11
5.54608e-17
4.30186e-11
5.97424e-17
4.60813e-11
6.17734e-17
4.88656e-11
6.24105e-17
5.13715e-11
6.06018e-17
5.35989e-11
5.6624e-17
5.55479e-11
5.10782e-17
5.72184e-11
4.32359e-17
5.86106e-11
3.44691e-17
5.97243e-11
2.35807e-17
6.05595e-11
1.26984e-17
6.11164e-11
6.43076e-19
6.13948e-11
-1.12347e-17
6.13948e-11
-2.23287e-17
6.11164e-11
-3.30783e-17
6.05595e-11
-4.20834e-17
5.97243e-11
-4.98282e-17
5.86106e-11
-5.5629e-17
5.72185e-11
-5.95498e-17
5.55479e-11
-6.16165e-17
5.35989e-11
-6.0959e-17
5.13715e-11
-5.91734e-17
4.88656e-11
-5.49025e-17
4.60813e-11
-4.97662e-17
4.30186e-11
-4.32316e-17
3.96774e-11
-3.61197e-17
3.60578e-11
-2.86728e-17
3.21597e-11
-2.11802e-17
2.79832e-11
-1.44817e-17
2.35282e-11
-8.52445e-18
1.87948e-11
-4.02957e-18
1.37829e-11
-1.03168e-18
8.49249e-12
2.92365e-12
8.1821e-19
2.92365e-12
3.25073e-18
8.49248e-12
7.05514e-18
1.37828e-11
1.19407e-17
1.87948e-11
1.77358e-17
2.35282e-11
2.38592e-17
2.79832e-11
3.02122e-17
3.21597e-11
3.63555e-17
3.60578e-11
4.19176e-17
3.96774e-11
4.66025e-17
4.30186e-11
5.00519e-17
4.60813e-11
5.22502e-17
4.88656e-11
5.24609e-17
5.13715e-11
5.11592e-17
5.35989e-11
4.80048e-17
5.55479e-11
4.32416e-17
5.72185e-11
3.67899e-17
5.86106e-11
2.91044e-17
5.97243e-11
2.03725e-17
6.05596e-11
1.06757e-17
6.11164e-11
6.03467e-19
6.13948e-11
-9.30229e-18
6.13948e-11
-1.91969e-17
6.11164e-11
-2.7799e-17
6.05596e-11
-3.57074e-17
5.97243e-11
-4.20682e-17
5.86106e-11
-4.70694e-17
5.72185e-11
-5.01708e-17
5.55479e-11
-5.17129e-17
5.35989e-11
-5.14835e-17
5.13715e-11
-4.95144e-17
4.88656e-11
-4.60752e-17
4.60813e-11
-4.1589e-17
4.30186e-11
-3.60578e-17
3.96774e-11
-3.00551e-17
3.60578e-11
-2.37437e-17
3.21597e-11
-1.76904e-17
2.79832e-11
-1.19245e-17
2.35282e-11
-7.07476e-18
1.87948e-11
-3.32062e-18
1.37829e-11
-8.52722e-19
8.49249e-12
2.92365e-12
6.55819e-19
2.92365e-12
2.66645e-18
8.49248e-12
5.85064e-18
1.37828e-11
9.79497e-18
1.87947e-11
1.46166e-17
2.35282e-11
1.97103e-17
2.79832e-11
2.51185e-17
3.21597e-11
3.02872e-17
3.60578e-11
3.49793e-17
3.96774e-11
3.90918e-17
4.30186e-11
4.17663e-17
4.60813e-11
4.37018e-17
4.88656e-11
4.391e-17
5.13715e-11
4.30408e-17
5.35989e-11
4.06001e-17
5.55479e-11
3.64713e-17
5.72185e-11
3.12362e-17
5.86106e-11
2.4429e-17
5.97243e-11
1.70954e-17
6.05596e-11
8.89368e-18
6.11164e-11
5.68218e-19
6.13948e-11
-7.60543e-18
6.13948e-11
-1.59891e-17
6.11164e-11
-2.32054e-17
6.05596e-11
-3.02182e-17
5.97243e-11
-3.5372e-17
5.86106e-11
-3.97201e-17
5.72185e-11
-4.21147e-17
5.55479e-11
-4.32054e-17
5.35989e-11
-4.29833e-17
5.13715e-11
-4.12584e-17
4.88656e-11
-3.85966e-17
4.60813e-11
-3.46701e-17
4.30186e-11
-3.00066e-17
3.96774e-11
-2.49846e-17
3.60578e-11
-1.96017e-17
3.21597e-11
-1.45891e-17
2.79832e-11
-9.78881e-18
2.35282e-11
-5.87878e-18
1.87947e-11
-2.73477e-18
1.37828e-11
-7.03139e-19
8.49248e-12
2.92365e-12
5.52311e-19
2.92365e-12
2.18953e-18
8.49248e-12
4.73148e-18
1.37828e-11
8.2011e-18
1.87947e-11
1.20077e-17
2.35282e-11
1.6495e-17
2.79832e-11
2.08405e-17
3.21597e-11
2.51801e-17
3.60578e-11
2.91229e-17
3.96774e-11
3.23656e-17
4.30186e-11
3.51454e-17
4.60813e-11
3.64101e-17
4.88656e-11
3.70647e-17
5.13715e-11
3.60983e-17
5.35989e-11
3.37817e-17
5.55479e-11
3.0836e-17
5.72185e-11
2.59634e-17
5.86106e-11
2.09188e-17
5.97243e-11
1.42471e-17
6.05596e-11
7.87649e-18
6.11164e-11
5.34463e-19
6.13948e-11
-6.66929e-18
6.13948e-11
-1.32071e-17
6.11164e-11
-1.97728e-17
6.05596e-11
-2.50065e-17
5.97243e-11
-2.98068e-17
5.86106e-11
-3.29548e-17
5.72185e-11
-3.52322e-17
5.55479e-11
-3.64035e-17
5.35989e-11
-3.57394e-17
5.13715e-11
-3.46697e-17
4.88656e-11
-3.19047e-17
4.60813e-11
-2.88334e-17
4.30186e-11
-2.49219e-17
3.96774e-11
-2.07072e-17
3.60578e-11
-1.64001e-17
3.21597e-11
-1.19813e-17
2.79832e-11
-8.19907e-18
2.35282e-11
-4.76547e-18
1.87947e-11
-2.25467e-18
1.37828e-11
-5.80745e-19
8.49248e-12
2.92365e-12
4.36019e-19
2.92365e-12
1.79365e-18
8.49248e-12
3.9255e-18
1.37828e-11
6.70857e-18
1.87947e-11
1.00534e-17
2.35282e-11
1.35693e-17
2.79832e-11
1.72678e-17
3.21597e-11
2.08987e-17
3.60578e-11
2.42053e-17
3.96774e-11
2.70508e-17
4.30186e-11
2.9174e-17
4.60813e-11
3.06609e-17
4.88656e-11
3.0836e-17
5.13715e-11
3.01998e-17
5.35989e-11
2.84285e-17
5.55479e-11
2.55374e-17
5.72185e-11
2.19375e-17
5.86106e-11
1.74309e-17
5.97243e-11
1.23258e-17
6.05596e-11
6.50695e-18
6.11164e-11
5.02015e-19
6.13948e-11
-5.38133e-18
6.13948e-11
-1.13487e-17
6.11164e-11
-1.63624e-17
6.05596e-11
-2.10388e-17
5.97243e-11
-2.45788e-17
5.86106e-11
-2.76534e-17
5.72185e-11
-2.93948e-17
5.55479e-11
-3.02184e-17
5.35989e-11
-3.00397e-17
5.13715e-11
-2.87329e-17
4.88656e-11
-2.66271e-17
4.60813e-11
-2.3943e-17
4.30186e-11
-2.06641e-17
3.96774e-11
-1.71628e-17
3.60578e-11
-1.34865e-17
3.21597e-11
-1.00472e-17
2.79832e-11
-6.71893e-18
2.35282e-11
-3.96907e-18
1.87947e-11
-1.86333e-18
1.37828e-11
-4.77536e-19
8.49248e-12
2.92365e-12
3.70209e-19
2.92365e-12
1.47838e-18
8.49248e-12
3.27424e-18
1.37828e-11
5.45902e-18
1.87947e-11
8.22897e-18
2.35282e-11
1.11256e-17
2.79832e-11
1.42907e-17
3.21597e-11
1.73206e-17
3.60578e-11
2.00845e-17
3.96774e-11
2.26065e-17
4.30186e-11
2.41226e-17
4.60813e-11
2.54123e-17
4.88656e-11
2.55529e-17
5.13715e-11
2.52098e-17
5.35989e-11
2.39178e-17
5.55479e-11
2.15021e-17
5.72185e-11
1.85376e-17
5.86106e-11
1.44319e-17
5.97243e-11
1.01959e-17
6.05596e-11
5.30733e-18
6.11164e-11
4.6537e-19
6.13949e-11
-4.26798e-18
6.13949e-11
-9.29015e-18
6.11164e-11
-1.34459e-17
6.05596e-11
-1.77059e-17
5.97243e-11
-2.06191e-17
5.86106e-11
-2.32024e-17
5.72185e-11
-2.44701e-17
5.55479e-11
-2.49847e-17
5.35989e-11
-2.48429e-17
5.13715e-11
-2.37193e-17
4.88656e-11
-2.222e-17
4.60813e-11
-1.98447e-17
4.30186e-11
-1.71088e-17
3.96774e-11
-1.41877e-17
3.60578e-11
-1.10549e-17
3.21597e-11
-8.22206e-18
2.79832e-11
-5.47096e-18
2.35282e-11
-3.32006e-18
1.87947e-11
-1.54441e-18
1.37828e-11
-3.96448e-19
8.49248e-12
2.92365e-12
3.01695e-19
2.92365e-12
1.21796e-18
8.49248e-12
2.61101e-18
1.37828e-11
4.61508e-18
1.87947e-11
6.70705e-18
2.35282e-11
9.34839e-18
2.79832e-11
1.18052e-17
3.21597e-11
1.43314e-17
3.60578e-11
1.66347e-17
3.96774e-11
1.85106e-17
4.30186e-11
2.02885e-17
4.60813e-11
2.09751e-17
4.88656e-11
2.15463e-17
5.13715e-11
2.09945e-17
5.35989e-11
1.96303e-17
5.55479e-11
1.81152e-17
5.72185e-11
1.51593e-17
5.86106e-11
1.23979e-17
5.97243e-11
8.3583e-18
6.05596e-11
4.80174e-18
6.11164e-11
4.2668e-19
6.13949e-11
-3.85172e-18
6.13949e-11
-7.52858e-18
6.11164e-11
-1.14977e-17
6.05596e-11
-1.43987e-17
5.97243e-11
-1.73103e-17
5.86106e-11
-1.89769e-17
5.72185e-11
-2.03211e-17
5.55479e-11
-2.10282e-17
5.35989e-11
-2.04581e-17
5.13715e-11
-1.99215e-17
4.88656e-11
-1.81607e-17
4.60813e-11
-1.64197e-17
4.30186e-11
-1.41411e-17
3.96774e-11
-1.17252e-17
3.60578e-11
-9.28715e-18
3.21597e-11
-6.71341e-18
2.79832e-11
-4.63448e-18
2.35282e-11
-2.65999e-18
1.87947e-11
-1.28418e-18
1.37828e-11
-3.3987e-19
8.49248e-12
2.92365e-12
3.2985e-19
2.92365e-12
1.04394e-18
8.49248e-12
2.16296e-18
1.37828e-11
3.72803e-18
1.87947e-11
5.64634e-18
2.35282e-11
7.61953e-18
2.79832e-11
9.73501e-18
3.21597e-11
1.18362e-17
3.60578e-11
1.37557e-17
3.96774e-11
1.54351e-17
4.30186e-11
1.66974e-17
4.60813e-11
1.76752e-17
4.88656e-11
1.77594e-17
5.13715e-11
1.74516e-17
5.35989e-11
1.64667e-17
5.55479e-11
1.4769e-17
5.72185e-11
1.27793e-17
5.86106e-11
1.0197e-17
5.97243e-11
7.31612e-18
6.05596e-11
3.87912e-18
6.11164e-11
3.87031e-19
6.13949e-11
-3.01754e-18
6.13949e-11
-6.56399e-18
6.11164e-11
-9.38101e-18
6.05596e-11
-1.20899e-17
5.97243e-11
-1.40397e-17
5.86106e-11
-1.5875e-17
5.72185e-11
-1.68425e-17
5.55479e-11
-1.72916e-17
5.35989e-11
-1.72091e-17
5.13715e-11
-1.63675e-17
4.88656e-11
-1.51215e-17
4.60813e-11
-1.35635e-17
4.30186e-11
-1.16689e-17
3.96774e-11
-9.65822e-18
3.60578e-11
-7.5705e-18
3.21597e-11
-5.65121e-18
2.79832e-11
-3.74796e-18
2.35282e-11
-2.21141e-18
1.87947e-11
-1.10569e-18
1.37828e-11
-3.55229e-19
8.49248e-12
2.92365e-12
1.70877e-19
2.92365e-12
8.03867e-19
8.49247e-12
1.76396e-18
1.37828e-11
2.80099e-18
1.87947e-11
4.57825e-18
2.35282e-11
6.18498e-18
2.79832e-11
8.02345e-18
3.21597e-11
9.76469e-18
3.60578e-11
1.13586e-17
3.96774e-11
1.28895e-17
4.30186e-11
1.36705e-17
4.60813e-11
1.45156e-17
4.88656e-11
1.45653e-17
5.13715e-11
1.44814e-17
5.35989e-11
1.36729e-17
5.55479e-11
1.24181e-17
5.72185e-11
1.08031e-17
5.86106e-11
8.31273e-18
5.97243e-11
5.95101e-18
6.05596e-11
3.06963e-18
6.11164e-11
3.49452e-19
6.13949e-11
-2.29312e-18
6.13949e-11
-5.27174e-18
6.11164e-11
-7.57738e-18
6.05596e-11
-1.01807e-17
5.97243e-11
-1.17616e-17
5.86106e-11
-1.314e-17
5.72185e-11
-1.39348e-17
5.55479e-11
-1.41461e-17
5.35989e-11
-1.40993e-17
5.13715e-11
-1.33779e-17
4.88656e-11
-1.26126e-17
4.60813e-11
-1.11935e-17
4.30186e-11
-9.62013e-18
3.96774e-11
-7.97047e-18
3.60578e-11
-6.14619e-18
3.21597e-11
-4.59597e-18
2.79832e-11
-2.82785e-18
2.35282e-11
-1.81454e-18
1.87947e-11
-8.65985e-19
1.37828e-11
-2.07089e-19
8.49248e-12
2.92365e-12
1.57937e-19
2.92365e-12
6.48182e-19
8.49247e-12
1.39436e-18
1.37828e-11
2.50006e-18
1.87947e-11
3.97488e-18
2.35282e-11
5.31776e-18
2.79832e-11
6.58227e-18
3.21597e-11
8.02931e-18
3.60578e-11
9.35017e-18
3.96774e-11
1.03916e-17
4.30186e-11
1.15461e-17
4.60813e-11
1.18502e-17
4.88656e-11
1.23351e-17
5.13715e-11
1.19908e-17
5.35989e-11
1.13299e-17
5.55479e-11
1.04723e-17
5.72185e-11
8.64504e-18
5.86106e-11
7.23767e-18
5.97243e-11
4.7722e-18
6.05596e-11
2.90275e-18
6.11164e-11
3.12826e-19
6.13949e-11
-2.20716e-18
6.13949e-11
-4.16423e-18
6.11164e-11
-6.57964e-18
6.05596e-11
-8.08951e-18
5.97243e-11
-9.88646e-18
5.86106e-11
-1.08564e-17
5.72185e-11
-1.1505e-17
5.55479e-11
-1.19647e-17
5.35989e-11
-1.14823e-17
5.13715e-11
-1.12904e-17
4.88656e-11
-1.01491e-17
4.60813e-11
-9.20701e-18
4.30186e-11
-7.90534e-18
3.96774e-11
-6.53178e-18
3.60578e-11
-5.28895e-18
3.21597e-11
-3.99014e-18
2.79832e-11
-2.52595e-18
2.35282e-11
-1.44309e-18
1.87947e-11
-7.05102e-19
1.37828e-11
-1.82288e-19
8.49248e-12
2.92365e-12
1.17189e-19
2.92365e-12
4.86774e-19
8.49247e-12
1.16394e-18
1.37828e-11
2.02424e-18
1.87947e-11
3.0504e-18
2.35282e-11
4.20279e-18
2.79831e-11
5.19121e-18
3.21597e-11
6.14745e-18
3.60578e-11
7.69832e-18
3.96774e-11
8.67141e-18
4.30186e-11
9.40381e-18
4.60813e-11
1.0052e-17
4.88656e-11
1.00562e-17
5.13715e-11
9.91256e-18
5.35989e-11
9.37074e-18
5.55479e-11
8.35783e-18
5.72185e-11
7.31022e-18
5.86106e-11
5.85848e-18
5.97243e-11
4.29704e-18
6.05596e-11
2.27265e-18
6.11164e-11
2.78869e-19
6.13949e-11
-1.65254e-18
6.13949e-11
-3.7559e-18
6.11164e-11
-5.27309e-18
6.05596e-11
-6.81748e-18
5.97243e-11
-7.83844e-18
5.86106e-11
-8.95252e-18
5.72185e-11
-9.48358e-18
5.55479e-11
-9.73109e-18
5.35989e-11
-9.72929e-18
5.13715e-11
-9.18127e-18
4.88656e-11
-8.46088e-18
4.60813e-11
-7.57763e-18
4.30186e-11
-6.04254e-18
3.96774e-11
-5.1604e-18
3.60578e-11
-4.18213e-18
3.21597e-11
-3.07565e-18
2.79832e-11
-2.05533e-18
2.35282e-11
-1.21313e-18
1.87947e-11
-5.42636e-19
1.37828e-11
-1.50262e-19
8.49248e-12
2.92365e-12
8.22977e-20
2.92365e-12
4.16242e-19
8.49247e-12
9.3195e-19
1.37828e-11
1.57589e-18
1.87947e-11
2.47944e-18
2.35282e-11
3.34105e-18
2.79831e-11
4.41347e-18
3.21597e-11
5.29118e-18
3.60578e-11
6.67833e-18
3.96774e-11
7.24719e-18
4.30186e-11
7.58435e-18
4.60813e-11
8.15149e-18
4.88656e-11
8.1332e-18
5.13715e-11
8.181e-18
5.35989e-11
7.73831e-18
5.55479e-11
7.05157e-18
5.72185e-11
6.2215e-18
5.86106e-11
4.674e-18
5.97243e-11
3.41476e-18
6.05596e-11
1.714e-18
6.11164e-11
2.47241e-19
6.13949e-11
-1.16335e-18
6.13949e-11
-2.9357e-18
6.11164e-11
-4.15501e-18
6.05596e-11
-5.78619e-18
5.97243e-11
-6.59228e-18
5.86106e-11
-7.37041e-18
5.72185e-11
-7.80352e-18
5.55479e-11
-7.84954e-18
5.35989e-11
-7.86994e-18
5.13715e-11
-7.39286e-18
4.88656e-11
-7.06619e-18
4.60813e-11
-6.5769e-18
4.30186e-11
-5.20502e-18
3.96774e-11
-4.3855e-18
3.60578e-11
-3.33018e-18
3.21597e-11
-2.50305e-18
2.79832e-11
-1.60675e-18
2.35282e-11
-9.7992e-19
1.87947e-11
-4.68262e-19
1.37828e-11
-1.04516e-19
8.49247e-12
2.92365e-12
6.41554e-20
2.92365e-12
3.13185e-19
8.49247e-12
6.82932e-19
1.37828e-11
1.30707e-18
1.87947e-11
1.91733e-18
2.35282e-11
2.77632e-18
2.79831e-11
3.58038e-18
3.21597e-11
4.40404e-18
3.60578e-11
5.1612e-18
3.96774e-11
5.70328e-18
4.30186e-11
6.06599e-18
4.60813e-11
7.29924e-18
4.88656e-11
6.97153e-18
5.13715e-11
6.73469e-18
5.35989e-11
6.37637e-18
5.55479e-11
5.98846e-18
5.72185e-11
4.81535e-18
5.86106e-11
4.19162e-18
5.97243e-11
2.64664e-18
6.05596e-11
1.76058e-18
6.11164e-11
2.18257e-19
6.13949e-11
-1.27496e-18
6.13949e-11
-2.2238e-18
6.11164e-11
-3.73428e-18
6.05596e-11
-4.43184e-18
5.97243e-11
-5.58488e-18
5.86106e-11
-6.05408e-18
5.72185e-11
-6.405e-18
5.55479e-11
-6.72551e-18
5.35989e-11
-7.05575e-18
5.13715e-11
-5.90323e-18
4.88656e-11
-5.55015e-18
4.60813e-11
-5.08067e-18
4.30186e-11
-4.33501e-18
3.96774e-11
-3.57098e-18
3.60578e-11
-2.77278e-18
3.21597e-11
-1.95063e-18
2.79832e-11
-1.34293e-18
2.35282e-11
-7.31715e-19
1.87947e-11
-3.64991e-19
1.37828e-11
-9.39623e-20
8.49247e-12
2.92365e-12
4.44095e-20
2.92365e-12
1.89386e-19
8.49247e-12
5.52007e-19
1.37828e-11
9.63243e-19
1.87947e-11
1.59902e-18
2.35282e-11
2.23847e-18
2.79831e-11
2.80988e-18
3.21597e-11
4.70643e-18
3.60578e-11
4.06837e-18
3.96774e-11
4.76228e-18
4.30186e-11
5.18573e-18
4.60813e-11
5.4921e-18
4.88656e-11
5.90523e-18
5.13715e-11
5.37117e-18
5.35989e-11
5.24177e-18
5.55479e-11
4.61698e-18
5.72185e-11
4.11363e-18
5.86106e-11
3.3122e-18
5.97243e-11
2.51694e-18
6.05596e-11
1.31052e-18
6.11164e-11
1.89667e-19
6.13949e-11
-8.87235e-19
6.13949e-11
-2.14958e-18
6.11164e-11
-2.91415e-18
6.05596e-11
-3.78171e-18
5.97243e-11
-4.26706e-18
5.86106e-11
-4.96451e-18
5.72185e-11
-5.08679e-18
5.55479e-11
-5.69535e-18
5.35989e-11
-5.28362e-18
5.13715e-11
-5.04929e-18
4.88656e-11
-4.63308e-18
4.60813e-11
-4.00214e-18
4.30186e-11
-4.65065e-18
3.96774e-11
-2.79937e-18
3.60578e-11
-2.2405e-18
3.21597e-11
-1.6282e-18
2.79832e-11
-9.96294e-19
2.35282e-11
-5.98107e-19
1.87947e-11
-2.35835e-19
1.37828e-11
-6.37949e-20
8.49247e-12
2.92365e-12
-4.90625e-20
2.92365e-12
1.26735e-19
8.49247e-12
4.0452e-19
1.37828e-11
1.40774e-18
1.87947e-11
1.22554e-18
2.35282e-11
1.6794e-18
2.79831e-11
2.32179e-18
3.21597e-11
2.78378e-18
3.60578e-11
3.41598e-18
3.96774e-11
3.88113e-18
4.30186e-11
4.09426e-18
4.60813e-11
4.49149e-18
4.88656e-11
4.42529e-18
5.13715e-11
4.53974e-18
5.35989e-11
3.63554e-18
5.55479e-11
4.62759e-18
5.72185e-11
3.55618e-18
5.86106e-11
2.5477e-18
5.97243e-11
1.92519e-18
6.05596e-11
9.0329e-19
6.11164e-11
1.62938e-19
6.13949e-11
-5.38033e-19
6.13949e-11
-1.6101e-18
6.11164e-11
-2.20493e-18
6.05596e-11
-3.27239e-18
5.97243e-11
-4.3271e-18
5.86106e-11
-3.39912e-18
5.72185e-11
-4.29627e-18
5.55479e-11
-4.24713e-18
5.35989e-11
-4.31412e-18
5.13715e-11
-3.97944e-18
4.88656e-11
-3.77261e-18
4.60813e-11
-3.36324e-18
4.30186e-11
-2.73908e-18
3.96774e-11
-2.32392e-18
3.60578e-11
-1.68471e-18
3.21597e-11
-1.26023e-18
2.79832e-11
-1.44297e-18
2.35282e-11
-4.48982e-19
1.87947e-11
-1.70639e-19
1.37828e-11
2.29447e-20
8.49247e-12
2.92365e-12
1.04984e-20
2.92365e-12
1.04139e-19
8.49247e-12
2.60155e-19
1.37828e-11
6.24722e-19
1.87947e-11
9.23868e-19
2.35282e-11
1.43262e-18
2.79831e-11
1.87971e-18
3.21597e-11
2.3452e-18
3.60577e-11
2.76847e-18
3.96774e-11
3.02643e-18
4.30186e-11
3.45287e-18
4.60813e-11
3.52e-18
4.88656e-11
3.74599e-18
5.13715e-11
3.71713e-18
5.35989e-11
3.52427e-18
5.55479e-11
3.2287e-18
5.72185e-11
2.77528e-18
5.86106e-11
2.06335e-18
5.97243e-11
1.40291e-18
6.05596e-11
1.07956e-18
6.11164e-11
1.39316e-19
6.13949e-11
-7.65241e-19
6.13949e-11
-1.13383e-18
6.11164e-11
-1.7686e-18
6.05596e-11
-2.53289e-18
5.97243e-11
-2.97046e-18
5.86106e-11
-3.32265e-18
5.72185e-11
-3.50855e-18
5.55479e-11
-3.59508e-18
5.35989e-11
-3.36931e-18
5.13715e-11
-3.35708e-18
4.88656e-11
-2.93587e-18
4.60813e-11
-2.72598e-18
4.30186e-11
-2.31094e-18
3.96774e-11
-1.87941e-18
3.60578e-11
-1.44263e-18
3.21597e-11
-9.54218e-19
2.79832e-11
-6.57295e-19
2.35282e-11
-3.02297e-19
1.87947e-11
-1.43775e-19
1.37828e-11
-2.72767e-20
8.49247e-12
2.92365e-12
1.74245e-20
2.92365e-12
6.97638e-20
8.49247e-12
2.64538e-19
1.37828e-11
4.46398e-19
1.87947e-11
8.08214e-19
2.35282e-11
1.15522e-18
2.79831e-11
1.41886e-18
3.21597e-11
1.90051e-18
3.60577e-11
2.12478e-18
3.96774e-11
2.57049e-18
4.30186e-11
2.81113e-18
4.60813e-11
2.99196e-18
4.88656e-11
3.05556e-18
5.13715e-11
2.87558e-18
5.35989e-11
2.88353e-18
5.55479e-11
2.47297e-18
5.72185e-11
2.27537e-18
5.86106e-11
1.84048e-18
5.97243e-11
5.78585e-19
6.05596e-11
1.28872e-18
6.11164e-11
1.20123e-19
6.13949e-11
-1.01747e-18
6.13949e-11
-3.46413e-19
6.11164e-11
-1.58609e-18
6.05596e-11
-2.06628e-18
5.97243e-11
-2.25055e-18
5.86106e-11
-2.71054e-18
5.72185e-11
-2.69714e-18
5.55479e-11
-2.92764e-18
5.35989e-11
-2.86471e-18
5.13715e-11
-2.73232e-18
4.88656e-11
-2.49673e-18
4.60813e-11
-2.09457e-18
4.30186e-11
-1.87602e-18
3.96774e-11
-1.43127e-18
3.60578e-11
-1.16842e-18
3.21597e-11
-8.44858e-19
2.79832e-11
-4.81972e-19
2.35282e-11
-3.0636e-19
1.87947e-11
-1.0905e-19
1.37828e-11
-4.13879e-20
8.49247e-12
2.92365e-12