/*--------------------------------*- C++ -*----------------------------------*\
  =========                 |
  \\      /  F ield         | OpenFOAM: The Open Source CFD Toolbox
   \\    /   O peration     | Website:  https://openfoam.org
    \\  /    A nd           | Version:  11
     \\/     M anipulation  |
\*---------------------------------------------------------------------------*/
FoamFile
{
    format      ascii;
    class       volScalarField;
    location    "717";
    object      p;
}
// * * * * * * * * * * * * * * * * * * * * * * * * * * * * * * * * * * * * * //

dimensions      [0 2 -2 0 0 0 0];

internalField   nonuniform List<scalar> 
104620
(
0.999721
0.999721
0.99972
0.99972
0.99972
0.99972
0.999719
0.999719
0.999719
0.999719
0.999718
0.999718
0.999718
0.999718
0.999717
0.999717
0.999717
0.999717
0.999716
0.999716
0.999716
0.999715
0.999715
0.999715
0.999715
0.999714
0.999714
0.999714
0.999714
0.999713
0.999713
0.999713
0.999713
0.999712
0.999712
0.999712
0.999712
0.999711
0.999711
0.999711
0.999711
0.99971
0.99971
0.99971
0.999163
0.999162
0.999161
0.999161
0.99916
0.999159
0.999158
0.999158
0.999157
0.999156
0.999155
0.999154
0.999154
0.999153
0.999152
0.999151
0.99915
0.99915
0.999149
0.999148
0.999147
0.999146
0.999146
0.999145
0.999144
0.999143
0.999143
0.999142
0.999141
0.99914
0.999139
0.999139
0.999138
0.999137
0.999136
0.999135
0.999135
0.999134
0.999133
0.999132
0.999132
0.999131
0.99913
0.999129
0.998605
0.998604
0.998602
0.998601
0.9986
0.998598
0.998597
0.998596
0.998595
0.998593
0.998592
0.998591
0.998589
0.998588
0.998587
0.998585
0.998584
0.998583
0.998581
0.99858
0.998579
0.998577
0.998576
0.998575
0.998574
0.998572
0.998571
0.99857
0.998568
0.998567
0.998566
0.998564
0.998563
0.998562
0.99856
0.998559
0.998558
0.998557
0.998555
0.998554
0.998553
0.998551
0.99855
0.998548
0.998047
0.998045
0.998043
0.998041
0.99804
0.998038
0.998036
0.998034
0.998032
0.99803
0.998029
0.998027
0.998025
0.998023
0.998021
0.998019
0.998018
0.998016
0.998014
0.998012
0.99801
0.998008
0.998007
0.998005
0.998003
0.998001
0.997999
0.997997
0.997996
0.997994
0.997992
0.99799
0.997988
0.997987
0.997985
0.997983
0.997981
0.997979
0.997977
0.997976
0.997974
0.997972
0.99797
0.997968
0.997489
0.997487
0.997484
0.997482
0.99748
0.997477
0.997475
0.997472
0.99747
0.997468
0.997465
0.997463
0.997461
0.997458
0.997456
0.997454
0.997451
0.997449
0.997447
0.997444
0.997442
0.997439
0.997437
0.997435
0.997432
0.99743
0.997428
0.997425
0.997423
0.997421
0.997418
0.997416
0.997414
0.997411
0.997409
0.997407
0.997404
0.997402
0.997399
0.997397
0.997395
0.997392
0.99739
0.997387
0.996931
0.996928
0.996925
0.996922
0.996919
0.996917
0.996914
0.996911
0.996908
0.996905
0.996902
0.996899
0.996896
0.996894
0.996891
0.996888
0.996885
0.996882
0.996879
0.996876
0.996873
0.996871
0.996868
0.996865
0.996862
0.996859
0.996856
0.996853
0.99685
0.996847
0.996845
0.996842
0.996839
0.996836
0.996833
0.99683
0.996827
0.996824
0.996822
0.996819
0.996816
0.996813
0.99681
0.996807
0.996373
0.99637
0.996366
0.996363
0.996359
0.996356
0.996353
0.996349
0.996346
0.996342
0.996339
0.996336
0.996332
0.996329
0.996325
0.996322
0.996319
0.996315
0.996312
0.996308
0.996305
0.996302
0.996298
0.996295
0.996291
0.996288
0.996285
0.996281
0.996278
0.996274
0.996271
0.996267
0.996264
0.996261
0.996257
0.996254
0.99625
0.996247
0.996244
0.99624
0.996237
0.996233
0.99623
0.996226
0.995816
0.995811
0.995807
0.995803
0.995799
0.995795
0.995791
0.995787
0.995784
0.99578
0.995776
0.995772
0.995768
0.995764
0.99576
0.995756
0.995752
0.995748
0.995744
0.99574
0.995736
0.995733
0.995729
0.995725
0.995721
0.995717
0.995713
0.995709
0.995705
0.995701
0.995697
0.995693
0.995689
0.995685
0.995681
0.995678
0.995674
0.99567
0.995666
0.995662
0.995658
0.995654
0.99565
0.995646
0.995258
0.995253
0.995248
0.995244
0.995239
0.995235
0.99523
0.995226
0.995221
0.995217
0.995212
0.995208
0.995204
0.995199
0.995195
0.99519
0.995186
0.995181
0.995177
0.995172
0.995168
0.995164
0.995159
0.995155
0.99515
0.995146
0.995141
0.995137
0.995132
0.995128
0.995123
0.995119
0.995115
0.99511
0.995106
0.995101
0.995097
0.995092
0.995088
0.995083
0.995079
0.995075
0.99507
0.995065
0.9947
0.994694
0.994689
0.994684
0.994679
0.994674
0.994669
0.994664
0.994659
0.994654
0.994649
0.994644
0.994639
0.994634
0.994629
0.994624
0.994619
0.994614
0.994609
0.994604
0.994599
0.994595
0.99459
0.994585
0.99458
0.994575
0.99457
0.994565
0.99456
0.994555
0.99455
0.994545
0.99454
0.994535
0.99453
0.994525
0.99452
0.994515
0.99451
0.994505
0.9945
0.994495
0.99449
0.994484
0.994142
0.994136
0.99413
0.994124
0.994119
0.994113
0.994108
0.994102
0.994097
0.994091
0.994086
0.99408
0.994075
0.994069
0.994064
0.994059
0.994053
0.994048
0.994042
0.994037
0.994031
0.994026
0.99402
0.994015
0.994009
0.994004
0.993998
0.993993
0.993987
0.993982
0.993976
0.993971
0.993965
0.99396
0.993954
0.993949
0.993943
0.993938
0.993932
0.993927
0.993921
0.993916
0.99391
0.993904
0.993584
0.993577
0.993571
0.993565
0.993559
0.993553
0.993547
0.993541
0.993535
0.993529
0.993523
0.993517
0.993511
0.993505
0.993499
0.993493
0.993487
0.993481
0.993475
0.993469
0.993463
0.993457
0.993451
0.993445
0.993438
0.993432
0.993426
0.99342
0.993414
0.993408
0.993402
0.993396
0.99339
0.993384
0.993378
0.993372
0.993366
0.99336
0.993354
0.993348
0.993342
0.993336
0.99333
0.993323
0.993026
0.993019
0.993012
0.993005
0.992999
0.992992
0.992986
0.992979
0.992973
0.992966
0.992959
0.992953
0.992946
0.99294
0.992933
0.992927
0.99292
0.992914
0.992907
0.992901
0.992894
0.992888
0.992881
0.992874
0.992868
0.992861
0.992855
0.992848
0.992842
0.992835
0.992829
0.992822
0.992816
0.992809
0.992803
0.992796
0.992789
0.992783
0.992776
0.99277
0.992763
0.992757
0.99275
0.992743
0.992468
0.99246
0.992453
0.992446
0.992439
0.992432
0.992425
0.992417
0.99241
0.992403
0.992396
0.992389
0.992382
0.992375
0.992368
0.992361
0.992354
0.992347
0.99234
0.992333
0.992326
0.992319
0.992311
0.992304
0.992297
0.99229
0.992283
0.992276
0.992269
0.992262
0.992255
0.992248
0.992241
0.992234
0.992227
0.99222
0.992213
0.992206
0.992198
0.992191
0.992184
0.992177
0.99217
0.992162
0.99191
0.991902
0.991894
0.991886
0.991879
0.991871
0.991863
0.991856
0.991848
0.991841
0.991833
0.991825
0.991818
0.99181
0.991803
0.991795
0.991788
0.99178
0.991772
0.991765
0.991757
0.99175
0.991742
0.991734
0.991727
0.991719
0.991712
0.991704
0.991696
0.991689
0.991681
0.991674
0.991666
0.991659
0.991651
0.991643
0.991636
0.991628
0.991621
0.991613
0.991605
0.991598
0.99159
0.991581
0.991352
0.991343
0.991335
0.991327
0.991318
0.99131
0.991302
0.991294
0.991286
0.991278
0.99127
0.991262
0.991254
0.991245
0.991237
0.991229
0.991221
0.991213
0.991205
0.991197
0.991189
0.991181
0.991172
0.991164
0.991156
0.991148
0.99114
0.991132
0.991124
0.991116
0.991108
0.991099
0.991091
0.991083
0.991075
0.991067
0.991059
0.991051
0.991043
0.991035
0.991027
0.991018
0.99101
0.991001
0.990794
0.990785
0.990776
0.990767
0.990758
0.99075
0.990741
0.990732
0.990724
0.990715
0.990707
0.990698
0.990689
0.990681
0.990672
0.990663
0.990655
0.990646
0.990637
0.990629
0.99062
0.990612
0.990603
0.990594
0.990586
0.990577
0.990568
0.99056
0.990551
0.990543
0.990534
0.990525
0.990517
0.990508
0.990499
0.990491
0.990482
0.990473
0.990465
0.990456
0.990448
0.990439
0.99043
0.99042
0.990236
0.990226
0.990217
0.990207
0.990198
0.990189
0.99018
0.990171
0.990162
0.990152
0.990143
0.990134
0.990125
0.990116
0.990107
0.990098
0.990088
0.990079
0.99007
0.990061
0.990052
0.990043
0.990033
0.990024
0.990015
0.990006
0.989997
0.989988
0.989978
0.989969
0.98996
0.989951
0.989942
0.989933
0.989924
0.989914
0.989905
0.989896
0.989887
0.989878
0.989869
0.989859
0.98985
0.98984
0.989678
0.989668
0.989658
0.989648
0.989638
0.989629
0.989619
0.989609
0.989599
0.98959
0.98958
0.98957
0.989561
0.989551
0.989541
0.989532
0.989522
0.989512
0.989503
0.989493
0.989483
0.989474
0.989464
0.989454
0.989445
0.989435
0.989425
0.989416
0.989406
0.989396
0.989386
0.989377
0.989367
0.989357
0.989348
0.989338
0.989328
0.989319
0.989309
0.989299
0.98929
0.98928
0.98927
0.989259
0.989121
0.989109
0.989098
0.989088
0.989078
0.989068
0.989058
0.989047
0.989037
0.989027
0.989017
0.989007
0.988996
0.988986
0.988976
0.988966
0.988956
0.988945
0.988935
0.988925
0.988915
0.988905
0.988894
0.988884
0.988874
0.988864
0.988854
0.988843
0.988833
0.988823
0.988813
0.988803
0.988792
0.988782
0.988772
0.988762
0.988752
0.988741
0.988731
0.988721
0.988711
0.988701
0.98869
0.988679
0.988563
0.988551
0.988539
0.988529
0.988518
0.988507
0.988497
0.988486
0.988475
0.988464
0.988454
0.988443
0.988432
0.988421
0.988411
0.9884
0.988389
0.988379
0.988368
0.988357
0.988346
0.988336
0.988325
0.988314
0.988303
0.988293
0.988282
0.988271
0.988261
0.98825
0.988239
0.988228
0.988218
0.988207
0.988196
0.988185
0.988175
0.988164
0.988153
0.988143
0.988132
0.988121
0.98811
0.988098
0.988005
0.987992
0.98798
0.987969
0.987958
0.987947
0.987935
0.987924
0.987913
0.987902
0.98789
0.987879
0.987868
0.987857
0.987845
0.987834
0.987823
0.987812
0.9878
0.987789
0.987778
0.987767
0.987755
0.987744
0.987733
0.987722
0.98771
0.987699
0.987688
0.987677
0.987665
0.987654
0.987643
0.987632
0.98762
0.987609
0.987598
0.987587
0.987575
0.987564
0.987553
0.987542
0.98753
0.987517
0.987447
0.987434
0.987421
0.98741
0.987398
0.987386
0.987374
0.987362
0.987351
0.987339
0.987327
0.987315
0.987304
0.987292
0.98728
0.987268
0.987257
0.987245
0.987233
0.987221
0.987209
0.987198
0.987186
0.987174
0.987162
0.987151
0.987139
0.987127
0.987115
0.987103
0.987092
0.98708
0.987068
0.987056
0.987045
0.987033
0.987021
0.987009
0.986997
0.986986
0.986974
0.986962
0.98695
0.986937
0.986889
0.986875
0.986862
0.98685
0.986838
0.986825
0.986813
0.986801
0.986789
0.986776
0.986764
0.986752
0.986739
0.986727
0.986715
0.986702
0.98669
0.986678
0.986666
0.986653
0.986641
0.986629
0.986616
0.986604
0.986592
0.986579
0.986567
0.986555
0.986543
0.98653
0.986518
0.986506
0.986493
0.986481
0.986469
0.986456
0.986444
0.986432
0.98642
0.986407
0.986395
0.986383
0.98637
0.986356
0.986331
0.986317
0.986303
0.98629
0.986278
0.986265
0.986252
0.986239
0.986226
0.986214
0.986201
0.986188
0.986175
0.986162
0.986149
0.986137
0.986124
0.986111
0.986098
0.986085
0.986072
0.98606
0.986047
0.986034
0.986021
0.986008
0.985996
0.985983
0.98597
0.985957
0.985944
0.985931
0.985919
0.985906
0.985893
0.98588
0.985867
0.985854
0.985842
0.985829
0.985816
0.985803
0.985789
0.985776
0.985773
0.985758
0.985744
0.985731
0.985718
0.985704
0.985691
0.985677
0.985664
0.985651
0.985637
0.985624
0.985611
0.985597
0.985584
0.985571
0.985557
0.985544
0.985531
0.985517
0.985504
0.985491
0.985477
0.985464
0.985451
0.985437
0.985424
0.985411
0.985397
0.985384
0.985371
0.985357
0.985344
0.985331
0.985317
0.985304
0.98529
0.985277
0.985264
0.98525
0.985237
0.985224
0.985209
0.985195
0.985215
0.9852
0.985185
0.985171
0.985157
0.985144
0.98513
0.985116
0.985102
0.985088
0.985074
0.98506
0.985046
0.985033
0.985019
0.985005
0.984991
0.984977
0.984963
0.984949
0.984936
0.984922
0.984908
0.984894
0.98488
0.984866
0.984852
0.984838
0.984825
0.984811
0.984797
0.984783
0.984769
0.984755
0.984741
0.984728
0.984714
0.9847
0.984686
0.984672
0.984658
0.984644
0.984629
0.984614
0.984657
0.984642
0.984626
0.984612
0.984597
0.984583
0.984569
0.984554
0.98454
0.984525
0.984511
0.984497
0.984482
0.984468
0.984453
0.984439
0.984425
0.98441
0.984396
0.984381
0.984367
0.984353
0.984338
0.984324
0.984309
0.984295
0.984281
0.984266
0.984252
0.984238
0.984223
0.984209
0.984194
0.98418
0.984166
0.984151
0.984137
0.984122
0.984108
0.984094
0.984079
0.984065
0.984049
0.984034
0.984099
0.984083
0.984067
0.984052
0.984037
0.984022
0.984007
0.983992
0.983978
0.983963
0.983948
0.983933
0.983918
0.983903
0.983888
0.983873
0.983858
0.983843
0.983828
0.983814
0.983799
0.983784
0.983769
0.983754
0.983739
0.983724
0.983709
0.983694
0.983679
0.983664
0.983649
0.983635
0.98362
0.983605
0.98359
0.983575
0.98356
0.983545
0.98353
0.983515
0.9835
0.983485
0.983469
0.983453
0.983541
0.983525
0.983508
0.983492
0.983477
0.983462
0.983446
0.983431
0.983415
0.9834
0.983385
0.983369
0.983354
0.983338
0.983323
0.983307
0.983292
0.983276
0.983261
0.983246
0.98323
0.983215
0.983199
0.983184
0.983168
0.983153
0.983137
0.983122
0.983107
0.983091
0.983076
0.98306
0.983045
0.983029
0.983014
0.982999
0.982983
0.982968
0.982952
0.982937
0.982921
0.982906
0.982889
0.982873
0.982983
0.982966
0.982949
0.982933
0.982917
0.982901
0.982885
0.982869
0.982853
0.982837
0.982821
0.982805
0.982789
0.982773
0.982757
0.982741
0.982726
0.98271
0.982694
0.982678
0.982662
0.982646
0.98263
0.982614
0.982598
0.982582
0.982566
0.98255
0.982534
0.982518
0.982502
0.982486
0.98247
0.982454
0.982438
0.982422
0.982406
0.98239
0.982374
0.982358
0.982343
0.982326
0.982309
0.982292
0.982425
0.982408
0.98239
0.982373
0.982357
0.98234
0.982324
0.982308
0.982291
0.982275
0.982258
0.982242
0.982225
0.982209
0.982192
0.982176
0.982159
0.982143
0.982126
0.98211
0.982093
0.982077
0.98206
0.982044
0.982027
0.982011
0.981994
0.981978
0.981961
0.981945
0.981928
0.981912
0.981895
0.981879
0.981862
0.981846
0.981829
0.981813
0.981796
0.98178
0.981764
0.981747
0.981729
0.981711
0.981868
0.981849
0.981831
0.981814
0.981797
0.98178
0.981763
0.981746
0.981729
0.981712
0.981695
0.981678
0.981661
0.981644
0.981627
0.98161
0.981593
0.981576
0.981559
0.981542
0.981525
0.981508
0.981491
0.981474
0.981457
0.98144
0.981423
0.981406
0.981389
0.981372
0.981355
0.981338
0.981321
0.981304
0.981287
0.98127
0.981253
0.981236
0.981219
0.981202
0.981185
0.981168
0.981149
0.981131
0.98131
0.981291
0.981272
0.981254
0.981237
0.981219
0.981202
0.981184
0.981167
0.981149
0.981132
0.981114
0.981097
0.981079
0.981061
0.981044
0.981026
0.981009
0.980991
0.980974
0.980956
0.980939
0.980921
0.980904
0.980886
0.980869
0.980851
0.980834
0.980816
0.980798
0.980781
0.980763
0.980746
0.980728
0.980711
0.980693
0.980676
0.980658
0.980641
0.980623
0.980606
0.980588
0.980569
0.98055
0.980752
0.980732
0.980713
0.980695
0.980677
0.980659
0.980641
0.980623
0.980604
0.980586
0.980568
0.98055
0.980532
0.980514
0.980496
0.980478
0.98046
0.980442
0.980424
0.980406
0.980388
0.98037
0.980352
0.980334
0.980316
0.980298
0.980279
0.980261
0.980243
0.980225
0.980207
0.980189
0.980171
0.980153
0.980135
0.980117
0.980099
0.980081
0.980063
0.980045
0.980027
0.980009
0.979989
0.97997
0.980194
0.980174
0.980154
0.980135
0.980117
0.980098
0.980079
0.980061
0.980042
0.980024
0.980005
0.979987
0.979968
0.979949
0.979931
0.979912
0.979894
0.979875
0.979856
0.979838
0.979819
0.979801
0.979782
0.979764
0.979745
0.979726
0.979708
0.979689
0.979671
0.979652
0.979634
0.979615
0.979596
0.979578
0.979559
0.979541
0.979522
0.979503
0.979485
0.979466
0.979448
0.979429
0.979409
0.979389
0.979636
0.979615
0.979595
0.979575
0.979556
0.979537
0.979518
0.979499
0.97948
0.979461
0.979442
0.979423
0.979404
0.979385
0.979365
0.979346
0.979327
0.979308
0.979289
0.97927
0.979251
0.979232
0.979213
0.979194
0.979174
0.979155
0.979136
0.979117
0.979098
0.979079
0.97906
0.979041
0.979022
0.979003
0.978983
0.978964
0.978945
0.978926
0.978907
0.978888
0.978869
0.97885
0.978829
0.978809
0.979078
0.979057
0.979036
0.979016
0.978996
0.978977
0.978957
0.978938
0.978918
0.978898
0.978879
0.978859
0.978839
0.97882
0.9788
0.978781
0.978761
0.978741
0.978722
0.978702
0.978682
0.978663
0.978643
0.978624
0.978604
0.978584
0.978565
0.978545
0.978525
0.978506
0.978486
0.978466
0.978447
0.978427
0.978408
0.978388
0.978368
0.978349
0.978329
0.97831
0.97829
0.97827
0.978249
0.978228
0.97852
0.978498
0.978477
0.978456
0.978436
0.978416
0.978396
0.978376
0.978356
0.978336
0.978315
0.978295
0.978275
0.978255
0.978235
0.978215
0.978195
0.978174
0.978154
0.978134
0.978114
0.978094
0.978074
0.978053
0.978033
0.978013
0.977993
0.977973
0.977953
0.977933
0.977912
0.977892
0.977872
0.977852
0.977832
0.977812
0.977792
0.977771
0.977751
0.977731
0.977711
0.977691
0.977669
0.977647
0.977962
0.97794
0.977918
0.977897
0.977876
0.977856
0.977835
0.977814
0.977794
0.977773
0.977752
0.977732
0.977711
0.97769
0.977669
0.977649
0.977628
0.977607
0.977587
0.977566
0.977545
0.977525
0.977504
0.977483
0.977463
0.977442
0.977421
0.977401
0.97738
0.977359
0.977339
0.977318
0.977297
0.977277
0.977256
0.977235
0.977215
0.977194
0.977173
0.977153
0.977132
0.977111
0.977089
0.977067
0.977404
0.977381
0.977359
0.977337
0.977316
0.977295
0.977274
0.977253
0.977231
0.97721
0.977189
0.977168
0.977147
0.977125
0.977104
0.977083
0.977062
0.977041
0.977019
0.976998
0.976977
0.976956
0.976935
0.976913
0.976892
0.976871
0.97685
0.976829
0.976807
0.976786
0.976765
0.976744
0.976723
0.976701
0.97668
0.976659
0.976638
0.976617
0.976595
0.976574
0.976553
0.976532
0.976509
0.976486
0.976846
0.976823
0.976799
0.976778
0.976756
0.976734
0.976713
0.976691
0.976669
0.976647
0.976626
0.976604
0.976582
0.976561
0.976539
0.976517
0.976495
0.976474
0.976452
0.97643
0.976409
0.976387
0.976365
0.976343
0.976322
0.9763
0.976278
0.976256
0.976235
0.976213
0.976191
0.97617
0.976148
0.976126
0.976104
0.976083
0.976061
0.976039
0.976018
0.975996
0.975974
0.975952
0.975929
0.975906
0.976288
0.976264
0.97624
0.976218
0.976196
0.976174
0.976151
0.976129
0.976107
0.976085
0.976062
0.97604
0.976018
0.975996
0.975973
0.975951
0.975929
0.975907
0.975885
0.975862
0.97584
0.975818
0.975796
0.975773
0.975751
0.975729
0.975707
0.975684
0.975662
0.97564
0.975618
0.975595
0.975573
0.975551
0.975529
0.975506
0.975484
0.975462
0.97544
0.975417
0.975395
0.975373
0.975349
0.975325
0.97573
0.975706
0.975681
0.975658
0.975636
0.975613
0.97559
0.975568
0.975545
0.975522
0.975499
0.975476
0.975454
0.975431
0.975408
0.975385
0.975363
0.97534
0.975317
0.975294
0.975272
0.975249
0.975226
0.975203
0.975181
0.975158
0.975135
0.975112
0.975089
0.975067
0.975044
0.975021
0.974998
0.974976
0.974953
0.97493
0.974907
0.974885
0.974862
0.974839
0.974816
0.974793
0.974769
0.974744
0.975173
0.975147
0.975122
0.975099
0.975076
0.975052
0.975029
0.975006
0.974983
0.974959
0.974936
0.974913
0.974889
0.974866
0.974843
0.97482
0.974796
0.974773
0.97475
0.974726
0.974703
0.97468
0.974657
0.974633
0.97461
0.974587
0.974563
0.97454
0.974517
0.974493
0.97447
0.974447
0.974424
0.9744
0.974377
0.974354
0.97433
0.974307
0.974284
0.974261
0.974237
0.974214
0.974189
0.974164
0.974615
0.974589
0.974563
0.974539
0.974516
0.974492
0.974468
0.974444
0.97442
0.974397
0.974373
0.974349
0.974325
0.974301
0.974278
0.974254
0.97423
0.974206
0.974182
0.974158
0.974135
0.974111
0.974087
0.974063
0.974039
0.974016
0.973992
0.973968
0.973944
0.97392
0.973897
0.973873
0.973849
0.973825
0.973801
0.973777
0.973754
0.97373
0.973706
0.973682
0.973659
0.973635
0.973609
0.973583
0.974057
0.97403
0.974004
0.97398
0.973956
0.973931
0.973907
0.973883
0.973858
0.973834
0.97381
0.973785
0.973761
0.973737
0.973712
0.973688
0.973664
0.973639
0.973615
0.973591
0.973566
0.973542
0.973517
0.973493
0.973469
0.973444
0.97342
0.973396
0.973371
0.973347
0.973323
0.973298
0.973274
0.97325
0.973225
0.973201
0.973177
0.973152
0.973128
0.973104
0.97308
0.973055
0.973029
0.973003
0.973499
0.973472
0.973445
0.97342
0.973395
0.973371
0.973346
0.973321
0.973296
0.973271
0.973246
0.973221
0.973197
0.973172
0.973147
0.973122
0.973097
0.973072
0.973047
0.973023
0.972998
0.972973
0.972948
0.972923
0.972898
0.972873
0.972849
0.972824
0.972799
0.972774
0.972749
0.972724
0.972699
0.972675
0.97265
0.972625
0.9726
0.972575
0.97255
0.972525
0.972501
0.972476
0.972449
0.972422
0.972941
0.972913
0.972886
0.972861
0.972835
0.97281
0.972785
0.972759
0.972734
0.972708
0.972683
0.972658
0.972632
0.972607
0.972582
0.972556
0.972531
0.972505
0.97248
0.972455
0.972429
0.972404
0.972378
0.972353
0.972328
0.972302
0.972277
0.972252
0.972226
0.972201
0.972175
0.97215
0.972125
0.972099
0.972074
0.972048
0.972023
0.971998
0.971972
0.971947
0.971922
0.971896
0.971869
0.971841
0.972383
0.972355
0.972327
0.972301
0.972275
0.972249
0.972223
0.972198
0.972172
0.972146
0.97212
0.972094
0.972068
0.972042
0.972016
0.97199
0.971964
0.971938
0.971913
0.971887
0.971861
0.971835
0.971809
0.971783
0.971757
0.971731
0.971705
0.971679
0.971654
0.971628
0.971602
0.971576
0.97155
0.971524
0.971498
0.971472
0.971446
0.97142
0.971394
0.971369
0.971343
0.971317
0.971289
0.971261
0.971825
0.971796
0.971768
0.971741
0.971715
0.971689
0.971662
0.971636
0.971609
0.971583
0.971557
0.97153
0.971504
0.971477
0.971451
0.971424
0.971398
0.971372
0.971345
0.971319
0.971292
0.971266
0.971239
0.971213
0.971187
0.97116
0.971134
0.971107
0.971081
0.971054
0.971028
0.971002
0.970975
0.970949
0.970922
0.970896
0.970869
0.970843
0.970817
0.97079
0.970764
0.970737
0.970709
0.97068
0.971267
0.971238
0.971209
0.971182
0.971155
0.971128
0.971101
0.971074
0.971047
0.97102
0.970993
0.970966
0.970939
0.970912
0.970886
0.970859
0.970832
0.970805
0.970778
0.970751
0.970724
0.970697
0.97067
0.970643
0.970616
0.970589
0.970562
0.970535
0.970508
0.970481
0.970454
0.970427
0.9704
0.970373
0.970346
0.97032
0.970293
0.970266
0.970239
0.970212
0.970185
0.970158
0.970129
0.9701
0.970709
0.970679
0.97065
0.970622
0.970595
0.970568
0.97054
0.970513
0.970485
0.970458
0.97043
0.970403
0.970375
0.970348
0.97032
0.970293
0.970265
0.970238
0.97021
0.970183
0.970155
0.970128
0.9701
0.970073
0.970045
0.970018
0.96999
0.969963
0.969936
0.969908
0.969881
0.969853
0.969826
0.969798
0.969771
0.969743
0.969716
0.969688
0.969661
0.969633
0.969606
0.969578
0.969549
0.969519
0.970151
0.970121
0.970091
0.970063
0.970035
0.970007
0.969979
0.969951
0.969923
0.969895
0.969867
0.969839
0.969811
0.969783
0.969755
0.969727
0.969699
0.969671
0.969643
0.969615
0.969587
0.969559
0.969531
0.969503
0.969475
0.969447
0.969419
0.969391
0.969363
0.969335
0.969307
0.969279
0.969251
0.969223
0.969195
0.969167
0.969139
0.969111
0.969083
0.969055
0.969027
0.968999
0.968969
0.968939
0.969593
0.969562
0.969532
0.969503
0.969475
0.969446
0.969418
0.969389
0.969361
0.969332
0.969304
0.969275
0.969247
0.969218
0.96919
0.969161
0.969133
0.969104
0.969075
0.969047
0.969018
0.96899
0.968961
0.968933
0.968904
0.968876
0.968847
0.968819
0.96879
0.968762
0.968733
0.968705
0.968676
0.968648
0.968619
0.968591
0.968562
0.968534
0.968505
0.968477
0.968448
0.968419
0.968389
0.968358
0.969035
0.969004
0.968973
0.968944
0.968915
0.968886
0.968857
0.968828
0.968799
0.968769
0.96874
0.968711
0.968682
0.968653
0.968624
0.968595
0.968566
0.968537
0.968508
0.968479
0.96845
0.968421
0.968392
0.968363
0.968334
0.968305
0.968276
0.968247
0.968218
0.968189
0.968159
0.96813
0.968101
0.968072
0.968043
0.968014
0.967985
0.967956
0.967927
0.967898
0.967869
0.96784
0.967809
0.967777
0.968478
0.968445
0.968414
0.968384
0.968355
0.968325
0.968295
0.968266
0.968236
0.968207
0.968177
0.968148
0.968118
0.968088
0.968059
0.968029
0.968
0.96797
0.967941
0.967911
0.967881
0.967852
0.967822
0.967793
0.967763
0.967734
0.967704
0.967674
0.967645
0.967615
0.967586
0.967556
0.967527
0.967497
0.967468
0.967438
0.967408
0.967379
0.967349
0.96732
0.96729
0.967261
0.967229
0.967197
0.96792
0.967887
0.967855
0.967824
0.967794
0.967764
0.967734
0.967704
0.967674
0.967644
0.967614
0.967584
0.967554
0.967524
0.967494
0.967463
0.967433
0.967403
0.967373
0.967343
0.967313
0.967283
0.967253
0.967223
0.967193
0.967163
0.967132
0.967102
0.967072
0.967042
0.967012
0.966982
0.966952
0.966922
0.966892
0.966862
0.966832
0.966801
0.966771
0.966741
0.966711
0.966681
0.966649
0.966616
0.967362
0.967328
0.967296
0.967265
0.967234
0.967204
0.967173
0.967143
0.967112
0.967081
0.967051
0.96702
0.966989
0.966959
0.966928
0.966898
0.966867
0.966836
0.966806
0.966775
0.966745
0.966714
0.966683
0.966653
0.966622
0.966591
0.966561
0.96653
0.9665
0.966469
0.966438
0.966408
0.966377
0.966347
0.966316
0.966285
0.966255
0.966224
0.966193
0.966163
0.966132
0.966102
0.966069
0.966036
0.966804
0.96677
0.966737
0.966705
0.966674
0.966643
0.966612
0.966581
0.96655
0.966519
0.966487
0.966456
0.966425
0.966394
0.966363
0.966332
0.966301
0.96627
0.966238
0.966207
0.966176
0.966145
0.966114
0.966083
0.966052
0.96602
0.965989
0.965958
0.965927
0.965896
0.965865
0.965834
0.965802
0.965771
0.96574
0.965709
0.965678
0.965647
0.965616
0.965584
0.965553
0.965522
0.965489
0.965455
0.966246
0.966211
0.966178
0.966146
0.966114
0.966083
0.966051
0.966019
0.965988
0.965956
0.965924
0.965893
0.965861
0.965829
0.965798
0.965766
0.965734
0.965703
0.965671
0.965639
0.965608
0.965576
0.965544
0.965513
0.965481
0.965449
0.965418
0.965386
0.965354
0.965323
0.965291
0.965259
0.965228
0.965196
0.965164
0.965133
0.965101
0.965069
0.965038
0.965006
0.964975
0.964943
0.964909
0.964874
0.965688
0.965653
0.965619
0.965586
0.965554
0.965522
0.96549
0.965458
0.965425
0.965393
0.965361
0.965329
0.965297
0.965264
0.965232
0.9652
0.965168
0.965136
0.965104
0.965071
0.965039
0.965007
0.964975
0.964943
0.96491
0.964878
0.964846
0.964814
0.964782
0.964749
0.964717
0.964685
0.964653
0.964621
0.964589
0.964556
0.964524
0.964492
0.96446
0.964428
0.964396
0.964363
0.964329
0.964294
0.96513
0.965094
0.965059
0.965027
0.964994
0.964961
0.964929
0.964896
0.964863
0.96483
0.964798
0.964765
0.964732
0.9647
0.964667
0.964634
0.964602
0.964569
0.964536
0.964503
0.964471
0.964438
0.964405
0.964373
0.96434
0.964307
0.964274
0.964242
0.964209
0.964176
0.964144
0.964111
0.964078
0.964045
0.964013
0.96398
0.963947
0.963915
0.963882
0.963849
0.963817
0.963784
0.963749
0.963713
0.964572
0.964536
0.9645
0.964467
0.964434
0.964401
0.964367
0.964334
0.964301
0.964268
0.964235
0.964201
0.964168
0.964135
0.964102
0.964068
0.964035
0.964002
0.963969
0.963935
0.963902
0.963869
0.963836
0.963803
0.963769
0.963736
0.963703
0.96367
0.963636
0.963603
0.96357
0.963537
0.963503
0.96347
0.963437
0.963404
0.96337
0.963337
0.963304
0.963271
0.963238
0.963204
0.963169
0.963133
0.964014
0.963977
0.963941
0.963907
0.963874
0.96384
0.963806
0.963773
0.963739
0.963705
0.963671
0.963638
0.963604
0.96357
0.963536
0.963503
0.963469
0.963435
0.963401
0.963367
0.963334
0.9633
0.963266
0.963232
0.963199
0.963165
0.963131
0.963097
0.963064
0.96303
0.962996
0.962962
0.962929
0.962895
0.962861
0.962827
0.962794
0.96276
0.962726
0.962692
0.962659
0.962625
0.962589
0.962552
0.963456
0.963419
0.963382
0.963348
0.963314
0.963279
0.963245
0.963211
0.963177
0.963142
0.963108
0.963074
0.96304
0.963005
0.962971
0.962937
0.962902
0.962868
0.962834
0.9628
0.962765
0.962731
0.962697
0.962662
0.962628
0.962594
0.96256
0.962525
0.962491
0.962457
0.962422
0.962388
0.962354
0.96232
0.962285
0.962251
0.962217
0.962182
0.962148
0.962114
0.96208
0.962045
0.962009
0.961971
0.962898
0.96286
0.962823
0.962788
0.962754
0.962719
0.962684
0.962649
0.962614
0.96258
0.962545
0.96251
0.962475
0.96244
0.962406
0.962371
0.962336
0.962301
0.962266
0.962232
0.962197
0.962162
0.962127
0.962092
0.962058
0.962023
0.961988
0.961953
0.961918
0.961884
0.961849
0.961814
0.961779
0.961744
0.96171
0.961675
0.96164
0.961605
0.96157
0.961536
0.961501
0.961466
0.961429
0.961391
0.96234
0.962302
0.962264
0.962229
0.962194
0.962158
0.962123
0.962088
0.962052
0.962017
0.961982
0.961946
0.961911
0.961876
0.96184
0.961805
0.96177
0.961734
0.961699
0.961664
0.961628
0.961593
0.961558
0.961522
0.961487
0.961452
0.961416
0.961381
0.961346
0.96131
0.961275
0.96124
0.961204
0.961169
0.961134
0.961098
0.961063
0.961028
0.960992
0.960957
0.960922
0.960886
0.960849
0.96081
0.961782
0.961744
0.961705
0.961669
0.961633
0.961598
0.961562
0.961526
0.96149
0.961454
0.961418
0.961383
0.961347
0.961311
0.961275
0.961239
0.961203
0.961167
0.961132
0.961096
0.96106
0.961024
0.960988
0.960952
0.960916
0.960881
0.960845
0.960809
0.960773
0.960737
0.960701
0.960666
0.96063
0.960594
0.960558
0.960522
0.960486
0.96045
0.960415
0.960379
0.960343
0.960307
0.960269
0.96023
0.961225
0.961185
0.961146
0.96111
0.961073
0.961037
0.961001
0.960964
0.960928
0.960892
0.960855
0.960819
0.960782
0.960746
0.96071
0.960673
0.960637
0.960601
0.960564
0.960528
0.960491
0.960455
0.960419
0.960382
0.960346
0.96031
0.960273
0.960237
0.9602
0.960164
0.960128
0.960091
0.960055
0.960019
0.959982
0.959946
0.959909
0.959873
0.959837
0.9598
0.959764
0.959728
0.959689
0.959649
0.960667
0.960627
0.960587
0.96055
0.960513
0.960476
0.96044
0.960403
0.960366
0.960329
0.960292
0.960255
0.960218
0.960181
0.960144
0.960107
0.960071
0.960034
0.959997
0.95996
0.959923
0.959886
0.959849
0.959812
0.959775
0.959738
0.959702
0.959665
0.959628
0.959591
0.959554
0.959517
0.95948
0.959443
0.959406
0.959369
0.959333
0.959296
0.959259
0.959222
0.959185
0.959148
0.959109
0.959069
0.960109
0.960068
0.960028
0.95999
0.959953
0.959916
0.959878
0.959841
0.959804
0.959766
0.959729
0.959691
0.959654
0.959616
0.959579
0.959542
0.959504
0.959467
0.959429
0.959392
0.959354
0.959317
0.95928
0.959242
0.959205
0.959167
0.95913
0.959093
0.959055
0.959018
0.95898
0.958943
0.958905
0.958868
0.958831
0.958793
0.958756
0.958718
0.958681
0.958644
0.958606
0.958569
0.958529
0.958488
0.959551
0.95951
0.959469
0.959431
0.959393
0.959355
0.959317
0.959279
0.959241
0.959203
0.959165
0.959127
0.95909
0.959052
0.959014
0.958976
0.958938
0.9589
0.958862
0.958824
0.958786
0.958748
0.95871
0.958672
0.958634
0.958596
0.958558
0.95852
0.958482
0.958445
0.958407
0.958369
0.958331
0.958293
0.958255
0.958217
0.958179
0.958141
0.958103
0.958065
0.958027
0.957989
0.957949
0.957907
0.958993
0.958951
0.95891
0.958871
0.958833
0.958795
0.958756
0.958718
0.958679
0.958641
0.958602
0.958564
0.958525
0.958487
0.958448
0.95841
0.958371
0.958333
0.958294
0.958256
0.958218
0.958179
0.958141
0.958102
0.958064
0.958025
0.957987
0.957948
0.95791
0.957871
0.957833
0.957794
0.957756
0.957717
0.957679
0.957641
0.957602
0.957564
0.957525
0.957487
0.957448
0.95741
0.957369
0.957327
0.958435
0.958393
0.958351
0.958312
0.958273
0.958234
0.958195
0.958156
0.958117
0.958078
0.958039
0.958
0.957961
0.957922
0.957883
0.957844
0.957805
0.957766
0.957727
0.957688
0.957649
0.95761
0.957571
0.957532
0.957493
0.957454
0.957415
0.957376
0.957337
0.957298
0.957259
0.95722
0.957181
0.957142
0.957103
0.957064
0.957025
0.956986
0.956947
0.956908
0.956869
0.95683