/*--------------------------------*- C++ -*----------------------------------*\
  =========                 |
  \\      /  F ield         | OpenFOAM: The Open Source CFD Toolbox
   \\    /   O peration     | Website:  https://openfoam.org
    \\  /    A nd           | Version:  11
     \\/     M anipulation  |
\*---------------------------------------------------------------------------*/
FoamFile
{
    format      ascii;
    class       surfaceScalarField;
    location    "717";
    object      phi;
}
// * * * * * * * * * * * * * * * * * * * * * * * * * * * * * * * * * * * * * //

dimensions      [0 3 -1 0 0 0 0];

internalField   nonuniform List<scalar> 
206880
(
2.73802e-18
1.53766e-12
1.05514e-17
4.47273e-12
2.1787e-17
7.26804e-12
3.5335e-17
9.92356e-12
5.03981e-17
1.24393e-11
6.6536e-17
1.48153e-11
8.31602e-17
1.70515e-11
9.99253e-17
1.91479e-11
1.16277e-16
2.11046e-11
1.32055e-16
2.29215e-11
1.46815e-16
2.45986e-11
1.60346e-16
2.6136e-11
1.72267e-16
2.75336e-11
1.82636e-16
2.87914e-11
1.91112e-16
2.99094e-11
1.97804e-16
3.08877e-11
2.02427e-16
3.17263e-11
2.05167e-16
3.2425e-11
2.05857e-16
3.2984e-11
2.04666e-16
3.34033e-11
2.01619e-16
3.36828e-11
1.96787e-16
3.38225e-11
1.90277e-16
3.38225e-11
1.82249e-16
3.36827e-11
1.72836e-16
3.34031e-11
1.62224e-16
3.29838e-11
1.50526e-16
3.24248e-11
1.37993e-16
3.17259e-11
1.24879e-16
3.08873e-11
1.11224e-16
2.9909e-11
9.75242e-17
2.87909e-11
8.36772e-17
2.75331e-11
7.02644e-17
2.61354e-11
5.72401e-17
2.45981e-11
4.50147e-17
2.29209e-11
3.35756e-17
2.1104e-11
2.34334e-17
1.91473e-11
1.4627e-17
1.70509e-11
7.48596e-18
1.48147e-11
2.06043e-18
1.24388e-11
-1.46527e-18
9.92302e-12
-3.01856e-18
7.26752e-12
-2.36896e-18
4.47224e-12
1.53719e-12
7.24026e-19
1.53766e-12
6.31941e-18
4.47273e-12
1.64015e-17
7.26803e-12
2.97793e-17
9.92355e-12
4.54496e-17
1.24393e-11
6.2599e-17
1.48153e-11
8.05391e-17
1.70515e-11
9.86982e-17
1.91479e-11
1.16597e-16
2.11046e-11
1.33735e-16
2.29215e-11
1.4985e-16
2.45986e-11
1.64519e-16
2.6136e-11
1.77641e-16
2.75335e-11
1.88861e-16
2.87914e-11
1.98199e-16
2.99094e-11
2.05373e-16
3.08877e-11
2.10528e-16
3.17263e-11
2.13423e-16
3.2425e-11
2.14296e-16
3.2984e-11
2.13009e-16
3.34033e-11
2.09706e-16
3.36828e-11
2.04481e-16
3.38225e-11
1.97492e-16
3.38225e-11
1.88827e-16
3.36827e-11
1.78657e-16
3.34031e-11
1.67211e-16
3.29838e-11
1.54614e-16
3.24248e-11
1.41111e-16
3.17259e-11
1.2695e-16
3.08874e-11
1.12364e-16
2.9909e-11
9.74834e-17
2.87909e-11
8.27231e-17
2.75331e-11
6.81393e-17
2.61354e-11
5.42954e-17
2.45981e-11
4.11373e-17
2.29209e-11
2.92147e-17
2.1104e-11
1.86756e-17
1.91474e-11
9.8089e-18
1.70509e-11
2.88611e-18
1.48147e-11
-1.86203e-18
1.24388e-11
-4.2648e-18
9.92302e-12
-4.15995e-18
7.26752e-12
-2.19067e-18
4.47224e-12
1.53719e-12
1.46148e-18
1.53766e-12
7.00621e-18
4.47272e-12
1.61874e-17
7.26802e-12
2.8413e-17
9.92354e-12
4.29501e-17
1.24393e-11
5.9261e-17
1.48153e-11
7.65806e-17
1.70515e-11
9.44659e-17
1.91479e-11
1.123e-16
2.11046e-11
1.29553e-16
2.29215e-11
1.45966e-16
2.45986e-11
1.61032e-16
2.61359e-11
1.7463e-16
2.75335e-11
1.86352e-16
2.87914e-11
1.96223e-16
2.99094e-11
2.03903e-16
3.08877e-11
2.09525e-16
3.17263e-11
2.12831e-16
3.2425e-11
2.14066e-16
3.2984e-11
2.13057e-16
3.34033e-11
2.10014e-16
3.36828e-11
2.04929e-16
3.38225e-11
1.97981e-16
3.38225e-11
1.89391e-16
3.36827e-11
1.79225e-16
3.34031e-11
1.67652e-16
3.29838e-11
1.55093e-16
3.24248e-11
1.41546e-16
3.1726e-11
1.27276e-16
3.08874e-11
1.12719e-16
2.9909e-11
9.78621e-17
2.87909e-11
8.32551e-17
2.75331e-11
6.89932e-17
2.61355e-11
5.54092e-17
2.45981e-11
4.2739e-17
2.29209e-11
3.14343e-17
2.1104e-11
2.14541e-17
1.91474e-11
1.33081e-17
1.70509e-11
6.97001e-18
1.48147e-11
2.675e-18
1.24388e-11
2.67508e-19
9.92302e-12
-3.96093e-19
7.26752e-12
-1.33114e-19
4.47224e-12
1.53719e-12
1.45146e-18
1.53766e-12
6.8734e-18
4.47272e-12
1.5617e-17
7.26801e-12
2.70286e-17
9.92353e-12
4.06796e-17
1.24393e-11
5.59543e-17
1.48152e-11
7.24094e-17
1.70514e-11
8.9401e-17
1.91479e-11
1.06484e-16
2.11045e-11
1.23311e-16
2.29214e-11
1.39274e-16
2.45986e-11
1.54233e-16
2.61359e-11
1.67665e-16
2.75335e-11
1.79555e-16
2.87913e-11
1.89571e-16
2.99094e-11
1.97626e-16
3.08877e-11
2.03401e-16
3.17262e-11
2.07155e-16
3.2425e-11
2.08597e-16
3.2984e-11
2.08079e-16
3.34033e-11
2.05346e-16
3.36828e-11
2.00681e-16
3.38225e-11
1.94157e-16
3.38225e-11
1.85965e-16
3.36827e-11
1.7624e-16
3.34032e-11
1.65182e-16
3.29838e-11
1.53002e-16
3.24248e-11
1.39946e-16
3.1726e-11
1.2626e-16
3.08874e-11
1.12116e-16
2.99091e-11
9.80125e-17
2.8791e-11
8.38787e-17
2.75331e-11
7.02601e-17
2.61355e-11
5.74305e-17
2.45981e-11
4.54802e-17
2.2921e-11
3.45849e-17
2.1104e-11
2.51767e-17
1.91474e-11
1.72711e-17
1.70509e-11
1.0976e-17
1.48147e-11
6.3096e-18
1.24388e-11
3.23387e-18
9.92303e-12
1.48793e-18
7.26752e-12
6.1055e-19
4.47224e-12
1.53719e-12
1.21526e-18
1.53765e-12
6.31101e-18
4.47271e-12
1.44477e-17
7.268e-12
2.50963e-17
9.92352e-12
3.77796e-17
1.24393e-11
5.20023e-17
1.48152e-11
6.7397e-17
1.70514e-11
8.33785e-17
1.91479e-11
9.96209e-17
2.11045e-11
1.15561e-16
2.29214e-11
1.30973e-16
2.45986e-11
1.4544e-16
2.61359e-11
1.58506e-16
2.75335e-11
1.70174e-16
2.87913e-11
1.79925e-16
2.99094e-11
1.87956e-16
3.08877e-11
1.93897e-16
3.17262e-11
1.97914e-16
3.2425e-11
1.999e-16
3.2984e-11
1.99568e-16
3.34033e-11
1.97409e-16
3.36828e-11
1.93215e-16
3.38225e-11
1.87312e-16
3.38225e-11
1.79706e-16
3.36827e-11
1.70605e-16
3.34032e-11
1.60234e-16
3.29839e-11
1.48698e-16
3.24248e-11
1.36454e-16
3.1726e-11
1.23527e-16
3.08874e-11
1.1026e-16
2.99091e-11
9.68139e-17
2.8791e-11
8.36895e-17
2.75331e-11
7.08772e-17
2.61355e-11
5.84886e-17
2.45981e-11
4.71885e-17
2.2921e-11
3.68611e-17
2.11041e-11
2.78446e-17
1.91474e-11
2.00827e-17
1.70509e-11
1.36562e-17
1.48147e-11
8.68102e-18
1.24388e-11
5.00751e-18
9.92303e-12
2.57281e-18
7.26752e-12
1.06375e-18
4.47224e-12
1.53719e-12
9.54306e-19
1.53765e-12
5.61906e-18
4.47271e-12
1.3145e-17
7.26799e-12
2.28999e-17
9.92351e-12
3.45208e-17
1.24392e-11
4.7685e-17
1.48152e-11
6.18574e-17
1.70514e-11
7.67539e-17
1.91479e-11
9.1814e-17
2.11045e-11
1.06931e-16
2.29214e-11
1.21355e-16
2.45985e-11
1.35022e-16
2.61359e-11
1.47628e-16
2.75335e-11
1.58772e-16
2.87913e-11
1.68385e-16
2.99094e-11
1.76214e-16
3.08877e-11
1.82298e-16
3.17262e-11
1.864e-16
3.2425e-11
1.88524e-16
3.2984e-11
1.88767e-16
3.34033e-11
1.8695e-16
3.36828e-11
1.83443e-16
3.38225e-11
1.78076e-16
3.38225e-11
1.71189e-16
3.36827e-11
1.62866e-16
3.34032e-11
1.53319e-16
3.29839e-11
1.42731e-16
3.24248e-11
1.3128e-16
3.1726e-11
1.19355e-16
3.08874e-11
1.07025e-16
2.99091e-11
9.45703e-17
2.8791e-11
8.21914e-17
2.75331e-11
7.01779e-17
2.61355e-11
5.87946e-17
2.45981e-11
4.80898e-17
2.2921e-11
3.83372e-17
2.11041e-11
2.94881e-17
1.91474e-11
2.18839e-17
1.7051e-11
1.54415e-17
1.48147e-11
1.0182e-17
1.24388e-11
6.12145e-18
9.92303e-12
3.2401e-18
7.26752e-12
1.34307e-18
4.47224e-12
1.53719e-12
6.46477e-19
1.53765e-12
4.86199e-18
4.4727e-12
1.16698e-17
7.26799e-12
2.05787e-17
9.9235e-12
3.12059e-17
1.24392e-11
4.31642e-17
1.48152e-11
5.61814e-17
1.70514e-11
6.98401e-17
1.91478e-11
8.38189e-17
2.11045e-11
9.76603e-17
2.29214e-11
1.11094e-16
2.45985e-11
1.23892e-16
2.61359e-11
1.35763e-16
2.75335e-11
1.46326e-16
2.87913e-11
1.55579e-16
2.99094e-11
1.63334e-16
3.08877e-11
1.69193e-16
3.17262e-11
1.73348e-16
3.2425e-11
1.75471e-16
3.2984e-11
1.76044e-16
3.34033e-11
1.74811e-16
3.36828e-11
1.71738e-16
3.38225e-11
1.67159e-16
3.38225e-11
1.61085e-16
3.36827e-11
1.53545e-16
3.34032e-11
1.44901e-16
3.29839e-11
1.35273e-16
3.24248e-11
1.24871e-16
3.1726e-11
1.13824e-16
3.08874e-11
1.02508e-16
2.99091e-11
9.10896e-17
2.8791e-11
7.96971e-17
2.75331e-11
6.85627e-17
2.61355e-11
5.7913e-17
2.45981e-11
4.78594e-17
2.2921e-11
3.8528e-17
2.11041e-11
3.01403e-17
1.91474e-11
2.25966e-17
1.7051e-11
1.623e-17
1.48148e-11
1.08914e-17
1.24388e-11
6.64974e-18
9.92304e-12
3.60428e-18
7.26753e-12
1.54852e-18
4.47225e-12
1.53719e-12
3.51597e-19
1.53765e-12
4.08507e-18
4.4727e-12
1.02329e-17
7.26798e-12
1.82202e-17
9.92349e-12
2.77624e-17
1.24392e-11
3.86377e-17
1.48152e-11
5.03963e-17
1.70514e-11
6.29031e-17
1.91478e-11
7.55908e-17
2.11045e-11
8.82781e-17
2.29214e-11
1.00792e-16
2.45985e-11
1.12588e-16
2.61359e-11
1.2353e-16
2.75335e-11
1.33648e-16
2.87913e-11
1.42268e-16
2.99094e-11
1.49425e-16
3.08877e-11
1.55214e-16
3.17262e-11
1.59272e-16
3.2425e-11
1.61777e-16
3.2984e-11
1.62489e-16
3.34033e-11
1.61665e-16
3.36828e-11
1.5926e-16
3.38225e-11
1.55196e-16
3.38225e-11
1.49753e-16
3.36827e-11
1.43141e-16
3.34032e-11
1.35442e-16
3.29839e-11
1.26761e-16
3.24248e-11
1.17351e-16
3.1726e-11
1.07383e-16
3.08874e-11
9.70576e-17
2.99091e-11
8.65116e-17
2.8791e-11
7.60514e-17
2.75331e-11
6.57886e-17
2.61355e-11
5.58828e-17
2.45981e-11
4.64505e-17
2.2921e-11
3.77645e-17
2.11041e-11
2.97586e-17
1.91474e-11
2.2636e-17
1.7051e-11
1.63272e-17
1.48148e-11
1.10907e-17
1.24388e-11
6.89804e-18
9.92304e-12
3.79787e-18
7.26753e-12
1.68294e-18
4.47225e-12
1.53719e-12
3.77873e-20
1.53765e-12
3.32345e-18
4.47269e-12
8.76612e-18
7.26797e-12
1.59227e-17
9.92348e-12
2.4498e-17
1.24392e-11
3.41947e-17
1.48152e-11
4.48342e-17
1.70514e-11
5.60139e-17
1.91478e-11
6.74929e-17
2.11045e-11
7.91074e-17
2.29214e-11
9.04343e-17
2.45985e-11
1.01239e-16
2.61359e-11
1.11419e-16
2.75335e-11
1.20578e-16
2.87913e-11
1.28731e-16
2.99094e-11
1.35524e-16
3.08877e-11
1.4105e-16
3.17262e-11
1.45136e-16
3.2425e-11
1.47567e-16
3.2984e-11
1.4862e-16
3.34033e-11
1.48014e-16
3.36828e-11
1.45961e-16
3.38225e-11
1.42699e-16
3.38225e-11
1.38033e-16
3.36827e-11
1.32115e-16
3.34032e-11
1.25266e-16
3.29839e-11
1.17513e-16
3.24248e-11
1.09071e-16
3.1726e-11
1.00077e-16
3.08874e-11
9.07455e-17
2.99091e-11
8.12068e-17
2.8791e-11
7.16652e-17
2.75332e-11
6.2236e-17
2.61355e-11
5.31222e-17
2.45981e-11
4.44083e-17
2.2921e-11
3.62486e-17
2.11041e-11
2.86676e-17
1.91474e-11
2.19327e-17
1.7051e-11
1.60009e-17
1.48148e-11
1.08779e-17
1.24388e-11
6.83599e-18
9.92305e-12
3.86285e-18
7.26753e-12
1.80349e-18
4.47225e-12
1.53719e-12
-2.51686e-19
1.53765e-12
2.59699e-18
4.47269e-12
7.42977e-18
7.26797e-12
1.37217e-17
9.92348e-12
2.12713e-17
1.24392e-11
2.99441e-17
1.48152e-11
3.9435e-17
1.70514e-11
4.94339e-17
1.91478e-11
5.98193e-17
2.11045e-11
7.02009e-17
2.29214e-11
8.0396e-17
2.45985e-11
9.04133e-17
2.61359e-11
9.9602e-17
2.75334e-11
1.08003e-16
2.87913e-11
1.15419e-16
2.99094e-11
1.21987e-16
3.08877e-11
1.27074e-16
3.17262e-11
1.30875e-16
3.2425e-11
1.33433e-16
3.2984e-11
1.34503e-16
3.34033e-11
1.34319e-16
3.36828e-11
1.32824e-16
3.38225e-11
1.29842e-16
3.38225e-11
1.25697e-16
3.36827e-11
1.20657e-16
3.34032e-11
1.14683e-16
3.29839e-11
1.07785e-16
3.24248e-11
1.0025e-16
3.1726e-11
9.21965e-17
3.08875e-11
8.38009e-17
2.99091e-11
7.51859e-17
2.8791e-11
6.65364e-17
2.75332e-11
5.79633e-17
2.61355e-11
4.96243e-17
2.45982e-11
4.16212e-17
2.2921e-11
3.40921e-17
2.11041e-11
2.71556e-17
1.91474e-11
2.08263e-17
1.7051e-11
1.52209e-17
1.48148e-11
1.04989e-17
1.24388e-11
6.69021e-18
9.92305e-12
3.86308e-18
7.26753e-12
1.88479e-18
4.47225e-12
1.5372e-12
-5.22669e-19
1.53765e-12
1.90419e-18
4.47269e-12
6.10775e-18
7.26796e-12
1.16609e-17
9.92347e-12
1.83438e-17
1.24392e-11
2.60005e-17
1.48152e-11
3.42663e-17
1.70514e-11
4.32111e-17
1.91478e-11
5.24627e-17
2.11045e-11
6.1691e-17
2.29214e-11
7.09265e-17
2.45985e-11
7.97569e-17
2.61358e-11
8.81676e-17
2.75334e-11
9.58003e-17
2.87913e-11
1.02695e-16
2.99093e-11
1.0852e-16
3.08877e-11
1.13377e-16
3.17262e-11
1.16974e-16
3.2425e-11
1.19476e-16
3.2984e-11
1.20769e-16
3.34033e-11
1.2055e-16
3.36828e-11
1.19417e-16
3.38225e-11
1.17116e-16
3.38225e-11
1.13758e-16
3.36827e-11
1.09267e-16
3.34032e-11
1.0392e-16
3.29839e-11
9.79295e-17
3.24248e-11
9.13297e-17
3.1726e-11
8.41126e-17
3.08875e-11
7.66106e-17
2.99091e-11
6.88916e-17
2.8791e-11
6.10994e-17
2.75332e-11
5.33473e-17
2.61355e-11
4.57891e-17
2.45982e-11
3.85073e-17
2.2921e-11
3.16324e-17
2.11041e-11
2.52137e-17
1.91474e-11
1.94216e-17
1.7051e-11
1.43207e-17
1.48148e-11
9.91854e-18
1.24388e-11
6.3737e-18
9.92305e-12
3.80635e-18
7.26754e-12
1.97301e-18
4.47225e-12
1.5372e-12
-7.98669e-19
1.53765e-12
1.26537e-18
4.47269e-12
4.94748e-18
7.26796e-12
9.74437e-18
9.92347e-12
1.55219e-17
1.24392e-11
2.2219e-17
1.48152e-11
2.9559e-17
1.70514e-11
3.73649e-17
1.91478e-11
4.5457e-17
2.11044e-11
5.3901e-17
2.29213e-11
6.20313e-17
2.45985e-11
6.99176e-17
2.61358e-11
7.73598e-17
2.75334e-11
8.44642e-17
2.87913e-11
9.05449e-17
2.99093e-11
9.58592e-17
3.08877e-11
1.00215e-16
3.17262e-11
1.03831e-16
3.2425e-11
1.06108e-16
3.2984e-11
1.07312e-16
3.34033e-11
1.07534e-16
3.36828e-11
1.06703e-16
3.38225e-11
1.04687e-16
3.38225e-11
1.01721e-16
3.36827e-11
9.79756e-17
3.34032e-11
9.34503e-17
3.29839e-11
8.80847e-17
3.24249e-11
8.2161e-17
3.1726e-11
7.5848e-17
3.08875e-11
6.92506e-17
2.99091e-11
6.2366e-17
2.8791e-11
5.53524e-17
2.75332e-11
4.84172e-17
2.61356e-11
4.16183e-17
2.45982e-11
3.50669e-17
2.2921e-11
2.88733e-17
2.11041e-11
2.3129e-17
1.91474e-11
1.7889e-17
1.7051e-11
1.32124e-17
1.48148e-11
9.24354e-18
1.24388e-11
6.07227e-18
9.92306e-12
3.7341e-18
7.26754e-12
2.03563e-18
4.47226e-12
1.5372e-12
-1.04546e-18
1.53765e-12
6.61273e-19
4.47268e-12
3.8113e-18
7.26796e-12
7.98846e-18
9.92346e-12
1.30328e-17
1.24392e-11
1.87635e-17
1.48152e-11
2.51542e-17
1.70514e-11
3.20483e-17
1.91478e-11
3.92244e-17
2.11044e-11
4.64526e-17
2.29213e-11
5.37199e-17
2.45985e-11
6.06528e-17
2.61358e-11
6.73767e-17
2.75334e-11
7.35192e-17
2.87913e-11
7.92049e-17
2.99093e-11
8.40084e-17
3.08876e-11
8.81026e-17
3.17262e-11
9.11421e-17
3.2425e-11
9.34203e-17
3.2984e-11
9.47586e-17
3.34033e-11
9.49762e-17
3.36828e-11
9.426e-17
3.38225e-11
9.27356e-17
3.38225e-11
9.03619e-17
3.36827e-11
8.7034e-17
3.34032e-11
8.30053e-17
3.29839e-11
7.84561e-17
3.24249e-11
7.33937e-17
3.1726e-11
6.78266e-17
3.08875e-11
6.18212e-17
2.99091e-11
5.57826e-17
2.8791e-11
4.96818e-17
2.75332e-11
4.35013e-17
2.61356e-11
3.74665e-17
2.45982e-11
3.15761e-17
2.2921e-11
2.60421e-17
2.11041e-11
2.08962e-17
1.91474e-11
1.62079e-17
1.7051e-11
1.20593e-17
1.48148e-11
8.5575e-18
1.24388e-11
5.67548e-18
9.92306e-12
3.64126e-18
7.26754e-12
2.11507e-18
4.47226e-12
1.5372e-12
-1.29775e-18
1.53766e-12
1.12654e-19
4.47268e-12
2.84068e-18
7.26795e-12
6.38528e-18
9.92346e-12
1.06649e-17
1.24392e-11
1.56786e-17
1.48152e-11
2.12364e-17
1.70513e-11
2.71479e-17
1.91478e-11
3.33963e-17
2.11044e-11
3.96554e-17
2.29213e-11
4.59267e-17
2.45985e-11
5.23203e-17
2.61358e-11
5.81559e-17
2.75334e-11
6.35981e-17
2.87913e-11
6.84395e-17
2.99093e-11
7.29829e-17
3.08876e-11
7.65622e-17
3.17262e-11
7.94581e-17
3.2425e-11
8.15204e-17
3.2984e-11
8.26963e-17
3.34033e-11
8.31327e-17
3.36828e-11
8.27491e-17
3.38225e-11
8.13964e-17
3.38225e-11
7.92922e-17
3.36827e-11
7.67148e-17
3.34032e-11
7.32483e-17
3.29839e-11
6.91973e-17
3.24249e-11
6.46254e-17
3.1726e-11
5.9895e-17
3.08875e-11
5.48275e-17
2.99091e-11
4.94134e-17
2.8791e-11
4.4043e-17
2.75332e-11
3.85749e-17
2.61356e-11
3.32543e-17
2.45982e-11
2.81473e-17
2.2921e-11
2.32705e-17
2.11041e-11
1.86869e-17
1.91474e-11
1.45683e-17
1.7051e-11
1.09133e-17
1.48148e-11
7.8039e-18
1.24388e-11
5.32655e-18
9.92306e-12
3.55664e-18
7.26754e-12
2.17524e-18
4.47226e-12
1.5372e-12
-1.51232e-18
1.53766e-12
-4.01975e-19
4.47268e-12
1.89111e-18
7.26795e-12
4.9378e-18
9.92345e-12
8.599e-18
1.24392e-11
1.28569e-17
1.48151e-11
1.76245e-17
1.70513e-11
2.27043e-17
1.91478e-11
2.79744e-17
2.11044e-11
3.35629e-17
2.29213e-11
3.9105e-17
2.45985e-11
4.44534e-17
2.61358e-11
4.96077e-17
2.75334e-11
5.43863e-17
2.87913e-11
5.88852e-17
2.99093e-11
6.26405e-17
3.08876e-11
6.59606e-17
3.17262e-11
6.86446e-17
3.2425e-11
7.05414e-17
3.2984e-11
7.15968e-17
3.34033e-11
7.20869e-17
3.36828e-11
7.17288e-17
3.38225e-11
7.07666e-17
3.38225e-11
6.91441e-17
3.36827e-11
6.6736e-17
3.34032e-11
6.37753e-17
3.29839e-11
6.03552e-17
3.24249e-11
5.66492e-17
3.17261e-11
5.23913e-17
3.08875e-11
4.80075e-17
2.99091e-11
4.33724e-17
2.8791e-11
3.85346e-17
2.75332e-11
3.38819e-17
2.61356e-11
2.92762e-17
2.45982e-11
2.47423e-17
2.2921e-11
2.0496e-17
2.11041e-11
1.65855e-17
1.91474e-11
1.2966e-17
1.7051e-11
9.79432e-18
1.48148e-11
7.10408e-18
1.24388e-11
4.997e-18
9.92306e-12
3.46786e-18
7.26754e-12
2.2525e-18
4.47226e-12
1.53721e-12
-1.74569e-18
1.53766e-12
-8.84721e-19
4.47268e-12
1.10445e-18
7.26795e-12
3.63642e-18
9.92345e-12
6.7474e-18
1.24392e-11
1.03226e-17
1.48151e-11
1.43078e-17
1.70513e-11
1.87481e-17
1.91478e-11
2.33325e-17
2.11044e-11
2.80141e-17
2.29213e-11
3.27484e-17
2.45984e-11
3.7368e-17
2.61358e-11
4.1841e-17
2.75334e-11
4.61726e-17
2.87912e-11
4.99513e-17
2.99093e-11
5.33674e-17
3.08876e-11
5.62554e-17
3.17262e-11
5.85379e-17
3.2425e-11
6.03248e-17
3.2984e-11
6.15048e-17
3.34033e-11
6.18897e-17
3.36828e-11
6.17892e-17
3.38225e-11
6.09106e-17
3.38225e-11
5.94585e-17
3.36827e-11
5.75628e-17
3.34032e-11
5.5182e-17
3.29839e-11
5.22076e-17
3.24249e-11
4.89996e-17
3.17261e-11
4.53426e-17
3.08875e-11
4.14143e-17
2.99091e-11
3.75435e-17
2.87911e-11
3.35469e-17
2.75332e-11
2.93744e-17
2.61356e-11
2.54249e-17
2.45982e-11
2.15984e-17
2.2921e-11
1.79074e-17
2.11041e-11
1.4515e-17
1.91474e-11
1.1485e-17
1.7051e-11
8.74343e-18
1.48148e-11
6.4552e-18
1.24388e-11
4.65307e-18
9.92306e-12
3.40548e-18
7.26755e-12
2.32749e-18
4.47226e-12
1.53721e-12
-1.94503e-18
1.53766e-12
-1.29753e-18
4.47268e-12
3.21294e-19
7.26795e-12
2.46828e-18
9.92345e-12
5.01484e-18
1.24392e-11
8.06304e-18
1.48151e-11
1.14441e-17
1.70513e-11
1.51334e-17
1.91478e-11
1.90611e-17
2.11044e-11
2.29956e-17
2.29213e-11
2.70385e-17
2.45984e-11
3.10972e-17
2.61358e-11
3.49484e-17
2.75334e-11
3.85974e-17
2.87912e-11
4.19879e-17
2.99093e-11
4.49729e-17
3.08876e-11
4.75106e-17
3.17262e-11
4.95933e-17
3.2425e-11
5.09456e-17
3.2984e-11
5.21077e-17
3.34033e-11
5.25662e-17
3.36828e-11
5.24293e-17
3.38225e-11
5.18654e-17
3.38225e-11
5.08073e-17
3.36827e-11
4.91152e-17
3.34032e-11
4.7071e-17
3.29839e-11
4.46196e-17
3.24249e-11
4.17946e-17
3.17261e-11
3.87459e-17
3.08875e-11
3.56274e-17
2.99092e-11
3.2181e-17
2.87911e-11
2.8736e-17
2.75332e-11
2.53746e-17
2.61356e-11
2.18865e-17
2.45982e-11
1.85453e-17
2.2921e-11
1.55448e-17
2.11041e-11
1.2636e-17
1.91475e-11
1.00423e-17
1.7051e-11
7.79521e-18
1.48148e-11
5.85089e-18
1.24388e-11
4.36701e-18
9.92307e-12
3.35541e-18
7.26755e-12
2.40994e-18
4.47226e-12
1.53721e-12
-2.15304e-18
1.53766e-12
-1.68587e-18
4.47268e-12
-3.11168e-19
7.26795e-12
1.42931e-18
9.92345e-12
3.57648e-18
1.24392e-11
6.05279e-18
1.48151e-11
8.83437e-18
1.70513e-11
1.19581e-17
1.91478e-11
1.51356e-17
2.11044e-11
1.87124e-17
2.29213e-11
2.20894e-17
2.45984e-11
2.53963e-17
2.61358e-11
2.87904e-17
2.75334e-11
3.18054e-17
2.87912e-11
3.47293e-17
2.99093e-11
3.72511e-17
3.08876e-11
3.952e-17
3.17262e-11
4.13496e-17
3.2425e-11
4.2725e-17
3.2984e-11
4.37326e-17
3.34033e-11
4.41185e-17
3.36828e-11
4.41893e-17
3.38225e-11
4.3645e-17
3.38225e-11
4.2681e-17
3.36827e-11
4.1415e-17
3.34032e-11
3.9662e-17
3.29839e-11
3.78115e-17
3.24249e-11
3.53789e-17
3.17261e-11
3.28229e-17
3.08875e-11
3.01681e-17
2.99092e-11
2.72091e-17
2.87911e-11
2.44284e-17
2.75332e-11
2.14214e-17
2.61356e-11
1.85852e-17
2.45982e-11
1.59335e-17
2.2921e-11
1.32809e-17
2.11041e-11
1.09477e-17
1.91475e-11
8.77601e-18
1.7051e-11
6.89502e-18
1.48148e-11
5.31999e-18
1.24388e-11
4.11498e-18
9.92307e-12
3.32138e-18
7.26755e-12
2.49336e-18
4.47226e-12
1.53721e-12
-2.34485e-18
1.53767e-12
-2.04856e-18
4.47268e-12
-9.44583e-19
7.26795e-12
5.07432e-19
9.92345e-12
2.20665e-18
1.24392e-11
4.28531e-18
1.48151e-11
6.63743e-18
1.70513e-11
9.15741e-18
1.91478e-11
1.19112e-17
2.11044e-11
1.47041e-17
2.29213e-11
1.75732e-17
2.45984e-11
2.05494e-17
2.61358e-11
2.3219e-17
2.75334e-11
2.59915e-17
2.87912e-11
2.81992e-17
2.99093e-11
3.05365e-17
3.08876e-11
3.23138e-17
3.17262e-11
3.39702e-17
3.2425e-11
3.5246e-17
3.2984e-11
3.60313e-17
3.34033e-11
3.65331e-17
3.36828e-11
3.65276e-17
3.38225e-11
3.62442e-17
3.38225e-11
3.56077e-17
3.36827e-11
3.44677e-17
3.34032e-11
3.31589e-17
3.29839e-11
3.14187e-17
3.24249e-11
2.95821e-17
3.17261e-11
2.75305e-17
3.08875e-11
2.5054e-17
2.99092e-11
2.28151e-17
2.87911e-11
2.03222e-17
2.75332e-11
1.80293e-17
2.61356e-11
1.56935e-17
2.45982e-11
1.34399e-17
2.2921e-11
1.13289e-17
2.11041e-11
9.37532e-18
1.91475e-11
7.63602e-18
1.7051e-11
6.11577e-18
1.48148e-11
4.82732e-18
1.24388e-11
3.97424e-18
9.92307e-12
3.31196e-18
7.26755e-12
2.62001e-18
4.47226e-12
1.53722e-12
-2.51303e-18
1.53767e-12
-2.36878e-18
4.47268e-12
-1.4493e-18
7.26794e-12
-3.32217e-19
9.92345e-12
1.09885e-18
1.24392e-11
2.6965e-18
1.48151e-11
4.64539e-18
1.70513e-11
6.65995e-18
1.91478e-11
8.968e-18
2.11044e-11
1.122e-17
2.29213e-11
1.35944e-17
2.45984e-11
1.59857e-17
2.61358e-11
1.83045e-17
2.75334e-11
2.05386e-17
2.87912e-11
2.27182e-17
2.99093e-11
2.46043e-17
3.08876e-11
2.62317e-17
3.17262e-11
2.76096e-17
3.2425e-11
2.86682e-17
3.2984e-11
2.94321e-17
3.34033e-11
2.98465e-17
3.36828e-11
2.98189e-17
3.38225e-11
2.96439e-17
3.38225e-11
2.90444e-17
3.36827e-11
2.81969e-17
3.34032e-11
2.71023e-17
3.29839e-11
2.57515e-17
3.24249e-11
2.42187e-17
3.17261e-11
2.25056e-17
3.08875e-11
2.08051e-17
2.99092e-11
1.88912e-17
2.87911e-11
1.69546e-17
2.75332e-11
1.49099e-17
2.61356e-11
1.3122e-17
2.45982e-11
1.12166e-17
2.29211e-11
9.69255e-18
2.11041e-11
7.87887e-18
1.91475e-11
6.71387e-18
1.7051e-11
5.33434e-18
1.48148e-11
4.50061e-18
1.24388e-11
3.76005e-18
9.92307e-12
3.32876e-18
7.26755e-12
2.68969e-18
4.47226e-12
1.53722e-12
-2.70187e-18
1.53767e-12
-2.68581e-18
4.47268e-12
-1.96175e-18
7.26794e-12
-1.0288e-18
9.92344e-12
3.02179e-20
1.24392e-11
1.37201e-18
1.48151e-11
2.83978e-18
1.70513e-11
4.56033e-18
1.91478e-11
6.31804e-18
2.11044e-11
8.27225e-18
2.29213e-11
1.02171e-17
2.45984e-11
1.21891e-17
2.61358e-11
1.41081e-17
2.75334e-11
1.59694e-17
2.87912e-11
1.76926e-17
2.99093e-11
1.92807e-17
3.08876e-11
2.06574e-17
3.17262e-11
2.17731e-17
3.2425e-11
2.27538e-17
3.2984e-11
2.33675e-17
3.34033e-11
2.38226e-17
3.36828e-11
2.40282e-17
3.38225e-11
2.38106e-17
3.38225e-11
2.34887e-17
3.36827e-11
2.27715e-17
3.34032e-11
2.19843e-17
3.29839e-11
2.08538e-17
3.24249e-11
1.97031e-17
3.17261e-11
1.82799e-17
3.08875e-11
1.68961e-17
2.99092e-11
1.53179e-17
2.87911e-11
1.39989e-17
2.75332e-11
1.22018e-17
2.61356e-11
1.08145e-17
2.45982e-11
9.6112e-18
2.29211e-11
7.8755e-18
2.11041e-11
7.04967e-18
1.91475e-11
5.59238e-18
1.7051e-11
4.96089e-18
1.48148e-11
4.17006e-18
1.24388e-11
3.45619e-18
9.92307e-12
3.33785e-18
7.26755e-12
2.78416e-18
4.47226e-12
1.53722e-12
-2.85988e-18
1.53767e-12
-2.96905e-18
4.47268e-12
-2.35847e-18
7.26794e-12
-1.66305e-18
9.92344e-12
-8.02989e-19
1.24392e-11
1.92281e-19
1.48151e-11
1.40591e-18
1.70513e-11
2.70467e-18
1.91477e-11
4.14002e-18
2.11044e-11
5.67563e-18
2.29213e-11
7.29553e-18
2.45984e-11
8.79773e-18
2.61358e-11
1.04734e-17
2.75334e-11
1.18928e-17
2.87912e-11
1.34348e-17
2.99093e-11
1.46381e-17
3.08876e-11
1.58553e-17
3.17262e-11
1.68587e-17
3.2425e-11
1.76471e-17
3.2984e-11
1.81839e-17
3.34033e-11
1.8614e-17
3.36828e-11
1.87132e-17
3.38225e-11
1.87062e-17
3.38225e-11
1.83782e-17
3.36827e-11
1.79651e-17
3.34032e-11
1.72627e-17
3.29839e-11
1.6512e-17
3.24249e-11
1.56474e-17
3.17261e-11
1.42359e-17
3.08875e-11
1.31918e-17
2.99092e-11
1.22509e-17
2.87911e-11
1.09717e-17
2.75332e-11
9.79721e-18
2.61356e-11
8.58163e-18
2.45982e-11
7.51598e-18
2.29211e-11
6.86526e-18
2.11041e-11
5.5995e-18
1.91475e-11
5.15688e-18
1.7051e-11
4.42536e-18
1.48148e-11
3.90308e-18
1.24388e-11
3.51426e-18
9.92307e-12
3.3722e-18
7.26755e-12
2.87129e-18
4.47226e-12
1.53723e-12
-3.03495e-18
1.53768e-12
-3.22872e-18
4.47268e-12
-2.77465e-18
7.26794e-12
-2.21633e-18
9.92344e-12
-1.62387e-18
1.24392e-11
-8.2342e-19
1.48151e-11
7.71699e-21
1.70513e-11
1.11633e-18
1.91477e-11
2.27948e-18
2.11044e-11
3.49435e-18
2.29213e-11
4.7432e-18
2.45984e-11
6.08463e-18
2.61358e-11
7.24069e-18
2.75334e-11
8.6028e-18
2.87912e-11
9.65015e-18
2.99093e-11
1.08068e-17
3.08876e-11
1.17685e-17
3.17262e-11
1.26173e-17
3.2425e-11
1.32279e-17
3.2984e-11
1.38934e-17
3.34033e-11
1.41012e-17
3.36828e-11
1.43547e-17
3.38225e-11
1.42801e-17
3.38225e-11
1.41267e-17
3.36827e-11
1.38618e-17
3.34032e-11
1.35384e-17
3.29839e-11
1.30049e-17
3.24249e-11
1.17011e-17
3.17261e-11
1.14098e-17
3.08875e-11
1.05883e-17
2.99092e-11
9.60499e-18
2.87911e-11
8.74023e-18
2.75332e-11
8.28127e-18
2.61356e-11
6.97254e-18
2.45982e-11
6.11333e-18
2.29211e-11
5.42342e-18
2.11041e-11
5.09993e-18
1.91475e-11
4.49843e-18
1.7051e-11
4.04769e-18
1.48148e-11
3.42132e-18
1.24388e-11
3.44531e-18
9.92307e-12
3.43709e-18
7.26755e-12
2.99745e-18
4.47226e-12
1.53723e-12
-3.18116e-18
1.53768e-12
-3.47e-18
4.47268e-12
-3.08242e-18
7.26794e-12
-2.70066e-18
9.92344e-12
-2.23455e-18
1.24392e-11
-1.69688e-18
1.48151e-11
-9.92629e-19
1.70513e-11
-2.0723e-19
1.91477e-11
5.63379e-19
2.11044e-11
1.54526e-18
2.29213e-11
2.41511e-18
2.45984e-11
3.47777e-18
2.61358e-11
4.47463e-18
2.75334e-11
5.47254e-18
2.87912e-11
6.34931e-18
2.99093e-11
7.36353e-18
3.08876e-11
8.15433e-18
3.17262e-11
8.8028e-18
3.2425e-11
9.44331e-18
3.2984e-11
1.00476e-17
3.34033e-11
1.04991e-17
3.36828e-11
1.07046e-17
3.38225e-11
1.01552e-17
3.38225e-11
1.01638e-17
3.36827e-11
9.9651e-18
3.34032e-11
9.67787e-18
3.29839e-11
9.1494e-18
3.24249e-11
9.30964e-18
3.17261e-11
8.64325e-18
3.08875e-11
8.07254e-18
2.99092e-11
7.3528e-18
2.87911e-11
6.75926e-18
2.75332e-11
6.06512e-18
2.61356e-11
5.98867e-18
2.45982e-11
5.45539e-18
2.29211e-11
4.90662e-18
2.11041e-11
4.13545e-18
1.91475e-11
3.75929e-18
1.7051e-11
3.51607e-18
1.48148e-11
3.53104e-18
1.24388e-11
3.47049e-18
9.92307e-12
3.51356e-18
7.26755e-12
3.12053e-18
4.47227e-12
1.53723e-12
-3.34094e-18
1.53768e-12
-3.69329e-18
4.47268e-12
-3.41943e-18
7.26794e-12
-3.11991e-18
9.92344e-12
-2.8806e-18
1.24392e-11
-2.37325e-18
1.48151e-11
-1.92992e-18
1.70513e-11
-1.39464e-18
1.91477e-11
-7.65463e-19
2.11044e-11
-5.96141e-20
2.29213e-11
7.25551e-19
2.45984e-11
1.45867e-18
2.61358e-11
2.23646e-18
2.75334e-11
3.0274e-18
2.87912e-11
3.83229e-18
2.99093e-11
4.1301e-18
3.08876e-11
5.33651e-18
3.17262e-11
6.12661e-18
3.2425e-11
6.55548e-18
3.2984e-11
6.78041e-18
3.34033e-11
6.94783e-18
3.36828e-11
7.16709e-18
3.38225e-11
7.79552e-18
3.38225e-11
7.81388e-18
3.36827e-11
7.58857e-18
3.34032e-11
7.3037e-18
3.29839e-11
7.0601e-18
3.24249e-11
6.65492e-18
3.17261e-11
6.3132e-18
3.08875e-11
5.84331e-18
2.99092e-11
5.57771e-18
2.87911e-11
5.10745e-18
2.75332e-11
4.75146e-18
2.61356e-11
4.33967e-18
2.45982e-11
3.96422e-18
2.29211e-11
3.73499e-18
2.11041e-11
3.83562e-18
1.91475e-11
3.67948e-18
1.7051e-11
3.50317e-18
1.48148e-11
3.43838e-18
1.24388e-11
3.4404e-18
9.92307e-12
3.61012e-18
7.26755e-12
3.24441e-18
4.47227e-12
1.53723e-12
-3.48242e-18
1.53769e-12
-3.89809e-18
4.47268e-12
-3.65499e-18
7.26794e-12
-3.48517e-18
9.92344e-12
-3.28867e-18
1.24392e-11
-3.06917e-18
1.48151e-11
-2.79168e-18
1.70513e-11
-2.36008e-18
1.91477e-11
-1.9603e-18
2.11044e-11
-1.45096e-18
2.29213e-11
-8.62024e-19
2.45984e-11
-2.70326e-19
2.61358e-11
5.40127e-19
2.75334e-11
9.88373e-19
2.87912e-11
1.57472e-18
2.99093e-11
2.46536e-18
3.08876e-11
2.24003e-18
3.17262e-11
2.60504e-18
3.2425e-11
3.0178e-18
3.2984e-11
3.9157e-18
3.34033e-11
4.19894e-18
3.36828e-11
4.29887e-18
3.38225e-11
4.43912e-18
3.38225e-11
4.5313e-18
3.36827e-11
4.40838e-18
3.34032e-11
4.38082e-18
3.29839e-11
4.15935e-18
3.24249e-11
4.04644e-18
3.17261e-11
4.49319e-18
3.08875e-11
4.20924e-18
2.99092e-11
3.91139e-18
2.87911e-11
3.64269e-18
2.75332e-11
3.48812e-18
2.61356e-11
3.37037e-18
2.45982e-11
3.18294e-18
2.29211e-11
3.12772e-18
2.11041e-11
3.39565e-18
1.91475e-11
3.38216e-18
1.7051e-11
3.38989e-18
1.48148e-11
3.37543e-18
1.24388e-11
3.49937e-18
9.92307e-12
3.70642e-18
7.26755e-12
3.35126e-18
4.47227e-12
1.53724e-12
-3.63073e-18
1.53769e-12
-4.08768e-18
4.47268e-12
-3.92839e-18
7.26794e-12
-3.79968e-18
9.92344e-12
-3.70151e-18
1.24392e-11
-3.62799e-18
1.48151e-11
-3.3819e-18
1.70513e-11
-3.16578e-18
1.91477e-11
-2.87409e-18
2.11044e-11
-2.65739e-18
2.29213e-11
-1.93704e-18
2.45984e-11
-1.60279e-18
2.61358e-11
-1.38335e-18
2.75334e-11
-9.18764e-19
2.87912e-11
-5.89016e-19
2.99093e-11
3.59917e-19
3.08876e-11
7.85916e-19
3.17262e-11
1.07753e-18
3.2425e-11
1.30807e-18
3.2984e-11
1.11999e-18
3.34033e-11
1.92144e-18
3.36828e-11
2.16695e-18
3.38225e-11
2.21056e-18
3.38225e-11
2.23011e-18
3.36827e-11
2.31924e-18
3.34032e-11
2.90892e-18
3.29839e-11
2.9272e-18
3.24249e-11
2.94031e-18
3.17261e-11
2.19761e-18
3.08875e-11
2.78487e-18
2.99092e-11
2.65123e-18
2.87911e-11
2.65456e-18
2.75332e-11
2.56111e-18
2.61356e-11
2.50512e-18
2.45982e-11
3.00342e-18
2.29211e-11
3.07462e-18
2.11041e-11
2.79538e-18
1.91475e-11
2.8618e-18
1.7051e-11
2.94535e-18
1.48148e-11
3.33772e-18
1.24388e-11
3.50117e-18
9.92307e-12
3.79427e-18
7.26755e-12
3.46525e-18
4.47227e-12
1.53724e-12
-3.80037e-18
1.53769e-12
-4.26868e-18
4.47268e-12
-4.11901e-18
7.26794e-12
-4.08245e-18
9.92344e-12
-4.03589e-18
1.24392e-11
-4.05011e-18
1.48151e-11
-4.1446e-18
1.70513e-11
-3.70962e-18
1.91477e-11
-3.57603e-18
2.11044e-11
-3.43481e-18
2.29213e-11
-3.18397e-18
2.45984e-11
-2.88108e-18
2.61358e-11
-2.79184e-18
2.75334e-11
-2.44727e-18
2.87912e-11
-1.51852e-18
2.99093e-11
-1.88313e-18
3.08876e-11
-1.54746e-18
3.17262e-11
-5.61571e-19
3.2425e-11
-3.78496e-19
3.2984e-11
-1.9865e-19
3.34033e-11
6.49896e-20
3.36828e-11
1.89471e-19
3.38225e-11
3.97756e-19
3.38225e-11
1.26223e-18
3.36827e-11
1.28648e-18
3.34032e-11
7.95088e-19
3.29839e-11
9.20252e-19
3.24249e-11
1.42679e-18
3.17261e-11
1.53383e-18
3.08875e-11
1.07671e-18
2.99092e-11
1.6531e-18
2.87911e-11
1.795e-18
2.75332e-11
1.83624e-18
2.61356e-11
2.48555e-18
2.45982e-11
2.20869e-18
2.29211e-11
2.24881e-18
2.11041e-11
2.83494e-18
1.91475e-11
3.04513e-18
1.7051e-11
3.18732e-18
1.48148e-11
3.15552e-18
1.24388e-11
3.62339e-18
9.92307e-12
3.93741e-18
7.26755e-12
3.60132e-18
4.47227e-12
1.53725e-12
-3.84506e-18
1.5377e-12
-4.50882e-18
4.47268e-12
-4.4382e-18
7.26794e-12
-4.29391e-18
9.92344e-12
-4.5036e-18
1.24392e-11
-4.29948e-18
1.48151e-11
-4.29051e-18
1.70513e-11
-4.69749e-18
1.91477e-11
-4.29897e-18
2.11044e-11
-4.07879e-18
2.29213e-11
-4.02584e-18
2.45984e-11