/*--------------------------------*- C++ -*----------------------------------*\
  =========                 |
  \\      /  F ield         | OpenFOAM: The Open Source CFD Toolbox
   \\    /   O peration     | Website:  https://openfoam.org
    \\  /    A nd           | Version:  11
     \\/     M anipulation  |
\*---------------------------------------------------------------------------*/
FoamFile
{
    format      ascii;
    class       volVectorField;
    location    "717";
    object      U;
}
// * * * * * * * * * * * * * * * * * * * * * * * * * * * * * * * * * * * * * //

dimensions      [0 1 -1 0 0 0 0];

internalField   nonuniform List<vector> 
104620
(
(0.0060514 0.00302579 -5.42369e-19)
(0.0176024 0.00880118 0)
(0.0286033 0.0143016 7.63247e-19)
(0.0390541 0.019527 -9.42812e-19)
(0.0489548 0.0244773 -9.32413e-19)
(0.0583054 0.0291526 1.29199e-18)
(0.067106 0.0335528 -9.13827e-19)
(0.0753565 0.037678 1.0176e-22)
(0.0830569 0.0415282 1.7965e-19)
(0.0902072 0.0451033 1.78249e-19)
(0.0968075 0.0484034 1.76866e-19)
(0.102858 0.0514285 1.75796e-19)
(0.108358 0.0541786 -1.74637e-19)
(0.113308 0.0566536 1.73781e-19)
(0.117708 0.0588537 -5.18686e-19)
(0.121558 0.0607787 1.72175e-19)
(0.124858 0.0624287 5.14361e-19)
(0.127608 0.0638036 5.12774e-19)
(0.129808 0.0649036 -5.11369e-19)
(0.131458 0.0657286 6.80252e-19)
(0.132558 0.0662785 -1.77982e-25)
(0.133108 0.0665535 -8.47847e-19)
(0.133108 0.0665534 -1.69422e-19)
(0.132558 0.0662784 -5.08399e-19)
(0.131457 0.0657283 1.35615e-18)
(0.129807 0.0649032 -6.78701e-19)
(0.127607 0.0638032 0)
(0.124857 0.0624281 -8.51235e-19)
(0.121557 0.060778 1.36556e-18)
(0.117706 0.0588529 -1.79443e-25)
(0.113306 0.0566528 -3.4363e-19)
(0.108356 0.0541777 0)
(0.102855 0.0514276 3.4666e-19)
(0.0968051 0.0484024 1.74188e-19)
(0.0902048 0.0451023 -5.25698e-19)
(0.0830544 0.0415271 1.05821e-18)
(0.075354 0.0376769 -5.32746e-19)
(0.0671035 0.0335517 8.94675e-19)
(0.058303 0.0291515 -5.41289e-19)
(0.0489524 0.0244762 7.28021e-19)
(0.0390518 0.0195259 0)
(0.0286012 0.0143006 0)
(0.0176004 0.00880023 0)
(0.00604954 0.00302487 -5.24067e-19)
(0.00605132 0.00302592 -5.06564e-19)
(0.0176023 0.00880119 7.06378e-19)
(0.0286032 0.0143016 7.02156e-19)
(0.039054 0.0195269 9.72065e-23)
(0.0489547 0.0244772 -3.47209e-19)
(0.0583053 0.0291525 -3.45443e-19)
(0.0671059 0.0335528 8.59514e-19)
(0.0753564 0.037678 3.42235e-19)
(0.0830568 0.0415281 0)
(0.0902071 0.0451033 0)
(0.0968074 0.0484034 5.0724e-19)
(0.102858 0.0514285 -6.7408e-19)
(0.108358 0.0541785 -5.03926e-19)
(0.113308 0.0566536 6.70036e-19)
(0.117708 0.0588536 -1.6712e-19)
(0.121558 0.0607786 1.66634e-19)
(0.124858 0.0624286 -6.65334e-19)
(0.127608 0.0638036 1.66078e-19)
(0.129808 0.0649036 4.97263e-19)
(0.131458 0.0657286 -6.6221e-19)
(0.132558 0.0662785 1.32302e-18)
(0.133108 0.0665535 -3.30492e-19)
(0.133108 0.0665534 1.32134e-18)
(0.132558 0.0662784 -1.32096e-18)
(0.131458 0.0657283 6.60405e-19)
(0.129807 0.0649033 -1.48619e-18)
(0.127607 0.0638032 6.60859e-19)
(0.124857 0.0624281 1.65382e-19)
(0.121557 0.060778 3.30993e-19)
(0.117706 0.0588529 1.65654e-19)
(0.113306 0.0566528 -1.65996e-19)
(0.108356 0.0541777 1.66192e-19)
(0.102856 0.0514276 4.99673e-19)
(0.0968052 0.0484025 -8.34809e-19)
(0.0902049 0.0451023 0)
(0.0830545 0.0415272 -3.35688e-19)
(0.075354 0.037677 0)
(0.0671036 0.0335517 -1.6897e-19)
(0.058303 0.0291515 -1.6958e-19)
(0.0489525 0.0244762 6.80759e-19)
(0.0390518 0.0195259 -1.36719e-18)
(0.0286012 0.0143006 6.86636e-19)
(0.0176004 0.00880024 -6.89886e-19)
(0.00604946 0.00302499 2.09384e-25)
(0.00605125 0.00302605 5.0628e-19)
(0.0176023 0.00880119 -5.29536e-19)
(0.0286032 0.0143015 0)
(0.0390539 0.0195269 8.72271e-19)
(0.0489546 0.0244772 -8.67581e-19)
(0.0583052 0.0291525 -9.69147e-23)
(0.0671058 0.0335527 -6.87184e-19)
(0.0753563 0.0376779 5.13015e-19)
(0.0830567 0.0415281 -1.7025e-19)
(0.0902071 0.0451033 -6.78497e-19)
(0.0968074 0.0484034 8.86161e-25)
(0.102858 0.0514285 6.73698e-19)
(0.108358 0.0541785 -1.67849e-19)
(0.113308 0.0566536 -6.69655e-19)
(0.117708 0.0588536 -5.00978e-19)
(0.121558 0.0607786 1.16606e-18)
(0.124858 0.0624286 -1.32991e-18)
(0.127608 0.0638036 1.32748e-18)
(0.129808 0.0649036 -6.62701e-19)
(0.131458 0.0657286 6.61833e-19)
(0.132558 0.0662785 -1.65236e-19)
(0.133108 0.0665535 -1.65198e-19)
(0.133108 0.0665534 -6.6015e-19)
(0.132558 0.0662784 -8.2511e-19)
(0.131458 0.0657283 8.24987e-19)
(0.129807 0.0649033 1.6509e-19)
(0.127607 0.0638032 4.95407e-19)
(0.124857 0.0624281 1.65192e-19)
(0.121557 0.0607781 -1.65449e-19)
(0.117706 0.058853 -1.65653e-19)
(0.113306 0.0566529 8.29217e-19)
(0.108356 0.0541778 -1.49534e-18)
(0.102856 0.0514276 8.32339e-19)
(0.0968053 0.0484025 -1.66807e-19)
(0.0902049 0.0451023 8.36344e-19)
(0.0830545 0.0415272 -6.70891e-19)
(0.0753541 0.037677 8.41258e-19)
(0.0671036 0.0335518 -8.44067e-19)
(0.0583031 0.0291515 -6.7773e-19)
(0.0489525 0.0244762 1.36073e-18)
(0.0390519 0.0195259 -1.19564e-18)
(0.0286012 0.0143006 6.86236e-19)
(0.0176004 0.00880025 0)
(0.00604939 0.00302512 0)
(0.00605117 0.00302619 -5.05996e-19)
(0.0176023 0.0088012 3.52791e-19)
(0.0286031 0.0143015 7.01363e-19)
(0.0390539 0.0195269 -1.91786e-18)
(0.0489546 0.0244772 1.38727e-18)
(0.0583052 0.0291525 -8.62681e-19)
(0.0671057 0.0335527 -6.86795e-19)
(0.0753562 0.0376779 6.83697e-19)
(0.0830566 0.0415281 1.70249e-19)
(0.090207 0.0451032 6.78111e-19)
(0.0968073 0.0484033 -8.44474e-19)
(0.102858 0.0514284 0)
(0.108358 0.0541785 -5.03353e-19)
(0.113308 0.0566536 8.36546e-19)
(0.117708 0.0588536 -8.34458e-19)
(0.121558 0.0607786 6.65964e-19)
(0.124858 0.0624286 0)
(0.127608 0.0638036 0)
(0.129808 0.0649036 1.65533e-19)
(0.131458 0.0657286 -8.26769e-19)
(0.132558 0.0662786 9.91133e-19)
(0.133108 0.0665535 0)
(0.133108 0.0665535 1.65013e-19)
(0.132558 0.0662784 1.64871e-19)
(0.131458 0.0657284 4.94687e-19)
(0.129807 0.0649033 -6.5979e-19)
(0.127607 0.0638032 1.65072e-19)
(0.124857 0.0624282 -9.90864e-19)
(0.121557 0.0607781 1.32245e-18)
(0.117707 0.058853 -1.21528e-24)
(0.113306 0.0566529 -6.63124e-19)
(0.108356 0.0541778 0)
(0.102856 0.0514277 4.99094e-19)
(0.0968053 0.0484025 -5.00229e-19)
(0.090205 0.0451024 -8.35955e-19)
(0.0830546 0.0415272 1.50889e-18)
(0.0753541 0.037677 -1.51352e-18)
(0.0671036 0.0335518 1.68775e-19)
(0.0583031 0.0291515 1.24169e-24)
(0.0489525 0.0244762 1.24329e-24)
(0.0390519 0.0195259 5.1205e-19)
(0.0286012 0.0143006 -5.14425e-19)
(0.0176004 0.00880026 6.89082e-19)
(0.00604932 0.00302526 0)
(0.0060511 0.00302632 3.79319e-19)
(0.0176022 0.0088012 8.81529e-19)
(0.0286031 0.0143015 -8.76162e-19)
(0.0390538 0.0195269 1.04548e-18)
(0.0489545 0.0244772 -1.21322e-18)
(0.0583051 0.0291525 0)
(0.0671057 0.0335527 0)
(0.0753561 0.0376779 -8.54086e-19)
(0.0830566 0.0415281 6.80417e-19)
(0.0902069 0.0451032 -1.69384e-19)
(0.0968072 0.0484033 3.37616e-19)
(0.102858 0.0514284 0)
(0.108358 0.0541785 1.67657e-19)
(0.113308 0.0566536 5.01621e-19)
(0.117708 0.0588536 -6.67148e-19)
(0.121558 0.0607786 0)
(0.124858 0.0624286 -4.98192e-19)
(0.127608 0.0638036 6.62982e-19)
(0.129808 0.0649036 -1.65533e-19)
(0.131458 0.0657286 8.26388e-19)
(0.132558 0.0662786 -1.65094e-18)
(0.133108 0.0665535 6.59847e-19)
(0.133108 0.0665535 1.64824e-19)
(0.132558 0.0662784 -9.88938e-19)
(0.131458 0.0657284 1.31853e-18)
(0.129807 0.0649033 -1.64806e-19)
(0.127607 0.0638033 1.64881e-19)
(0.124857 0.0624282 -9.90292e-19)
(0.121557 0.0607781 1.15652e-18)
(0.117707 0.058853 -6.61657e-19)
(0.113306 0.0566529 -8.28351e-19)
(0.108356 0.0541778 4.97901e-19)
(0.102856 0.0514277 6.65136e-19)
(0.0968054 0.0484025 -6.66648e-19)
(0.090205 0.0451024 0)
(0.0830546 0.0415272 1.67503e-19)
(0.0753541 0.037677 0)
(0.0671037 0.0335518 0)
(0.0583031 0.0291515 -6.76939e-19)
(0.0489525 0.0244762 6.7957e-19)
(0.0390519 0.0195259 0)
(0.0286012 0.0143005 -8.5684e-19)
(0.0176004 0.00880028 8.60797e-19)
(0.00604925 0.0030254 0)
(0.00605102 0.00302645 -2.52713e-19)
(0.0176022 0.00880121 -7.04784e-19)
(0.0286031 0.0143015 8.75764e-19)
(0.0390538 0.0195268 6.9669e-19)
(0.0489545 0.0244772 -8.66108e-19)
(0.0583051 0.0291524 0)
(0.0671056 0.0335527 -1.71455e-19)
(0.0753561 0.0376779 3.41459e-19)
(0.0830565 0.041528 0)
(0.0902069 0.0451032 8.46721e-19)
(0.0968072 0.0484033 -6.74943e-19)
(0.102857 0.0514284 0)
(0.108358 0.0541785 -1.67656e-19)
(0.113308 0.0566536 -1.6708e-19)
(0.117708 0.0588536 5.0012e-19)
(0.121558 0.0607786 -1.92071e-24)
(0.124858 0.0624286 -9.95721e-19)
(0.127608 0.0638036 0)
(0.129808 0.0649036 0)
(0.131458 0.0657286 0)
(0.132558 0.0662786 9.40911e-23)
(0.133108 0.0665536 -6.59465e-19)
(0.133108 0.0665535 4.94282e-19)
(0.132558 0.0662785 -4.94135e-19)
(0.131458 0.0657284 1.64676e-19)
(0.129807 0.0649034 8.23831e-19)
(0.127607 0.0638033 4.94453e-19)
(0.124857 0.0624282 -9.89718e-19)
(0.121557 0.0607781 8.25618e-19)
(0.117707 0.0588531 -6.61273e-19)
(0.113306 0.056653 0)
(0.108356 0.0541778 -4.97514e-19)
(0.102856 0.0514277 6.6475e-19)
(0.0968054 0.0484026 0)
(0.0902051 0.0451024 0)
(0.0830546 0.0415272 -1.67502e-19)
(0.0753542 0.037677 -1.67919e-19)
(0.0671037 0.0335518 1.68479e-19)
(0.0583031 0.0291515 -8.45628e-19)
(0.0489525 0.0244762 6.79172e-19)
(0.0390519 0.0195259 -1.7045e-19)
(0.0286012 0.0143005 -8.56237e-19)
(0.0176004 0.0088003 5.16155e-19)
(0.00604919 0.00302554 -6.13267e-19)
(0.00605095 0.00302659 -7.57709e-19)
(0.0176022 0.00880122 8.80432e-19)
(0.0286031 0.0143014 8.75165e-19)
(0.0390538 0.0195268 -3.481e-19)
(0.0489544 0.0244771 -1.73064e-19)
(0.058305 0.0291524 -1.72184e-19)
(0.0671055 0.0335527 8.57076e-19)
(0.075356 0.0376779 -8.5321e-19)
(0.0830564 0.041528 0)
(0.0902068 0.0451032 0)
(0.0968071 0.0484033 5.05796e-19)
(0.102857 0.0514284 -1.34432e-18)
(0.108358 0.0541785 6.70051e-19)
(0.113308 0.0566536 1.67079e-19)
(0.117708 0.0588536 8.33023e-19)
(0.121558 0.0607786 -1.32964e-18)
(0.124858 0.0624287 9.95147e-19)
(0.127608 0.0638037 -6.62217e-19)
(0.129808 0.0649037 1.32236e-18)
(0.131458 0.0657286 -6.60312e-19)
(0.132558 0.0662786 8.24562e-19)
(0.133108 0.0665536 -1.15344e-18)
(0.133108 0.0665536 1.31745e-18)
(0.132558 0.0662785 -8.23116e-19)
(0.131458 0.0657285 -8.23175e-19)
(0.129808 0.0649034 1.4819e-18)
(0.127607 0.0638033 -6.58953e-19)
(0.124857 0.0624283 8.24331e-19)
(0.121557 0.0607782 -6.60074e-19)
(0.117707 0.0588531 0)
(0.113306 0.056653 -1.6542e-19)
(0.108356 0.0541779 -6.63028e-19)
(0.102856 0.0514277 1.32872e-18)
(0.0968055 0.0484026 -6.6587e-19)
(0.0902051 0.0451024 -6.67554e-19)
(0.0830547 0.0415272 2.2854e-24)
(0.0753542 0.037677 6.71573e-19)
(0.0671037 0.0335518 -9.7611e-23)
(0.0583032 0.0291515 1.69085e-19)
(0.0489526 0.0244763 0)
(0.0390519 0.0195259 3.40798e-19)
(0.0286012 0.0143005 1.71206e-19)
(0.0176004 0.00880032 0)
(0.00604912 0.00302568 2.45177e-19)
(0.00605087 0.00302672 -3.78604e-19)
(0.0176022 0.00880122 7.03885e-19)
(0.028603 0.0143014 -6.99869e-19)
(0.0390537 0.0195268 1.2176e-18)
(0.0489544 0.0244771 -1.03808e-18)
(0.058305 0.0291524 1.0328e-18)
(0.0671055 0.0335526 1.71259e-19)
(0.075356 0.0376778 0)
(0.0830564 0.041528 1.69764e-19)
(0.0902067 0.0451032 1.69093e-19)
(0.0968071 0.0484033 8.42541e-19)
(0.102857 0.0514284 -6.71775e-19)
(0.108358 0.0541785 1.67369e-19)
(0.113308 0.0566536 -1.66888e-19)
(0.117708 0.0588536 -6.65996e-19)
(0.121558 0.0607786 1.32887e-18)
(0.124858 0.0624287 -6.63143e-19)
(0.127608 0.0638037 6.61834e-19)
(0.129808 0.0649037 -6.60798e-19)
(0.131458 0.0657287 -6.59928e-19)
(0.132558 0.0662786 1.31846e-18)
(0.133108 0.0665536 -1.64725e-19)
(0.133108 0.0665536 -1.48122e-18)
(0.132558 0.0662785 6.58242e-19)
(0.131458 0.0657285 -1.64483e-19)
(0.129808 0.0649034 6.58164e-19)
(0.127607 0.0638034 -6.58569e-19)
(0.124857 0.0624283 0)
(0.121557 0.0607782 0)
(0.117707 0.0588531 0)
(0.113306 0.056653 8.26902e-19)
(0.108356 0.0541779 -8.28255e-19)
(0.102856 0.0514278 0)
(0.0968055 0.0484026 0)
(0.0902051 0.0451024 -1.66743e-19)
(0.0830547 0.0415273 -6.69028e-19)
(0.0753542 0.037677 6.71178e-19)
(0.0671037 0.0335518 -1.00998e-18)
(0.0583032 0.0291516 2.66168e-24)
(0.0489526 0.0244763 6.78372e-19)
(0.0390519 0.0195259 -1.70348e-19)
(0.0286012 0.0143005 6.84221e-19)
(0.0176004 0.00880034 -6.8746e-19)
(0.00604906 0.00302582 -7.14424e-23)
(0.0060508 0.00302685 5.04565e-19)
(0.0176021 0.00880123 -1.40726e-18)
(0.028603 0.0143014 5.24481e-19)
(0.0390537 0.0195268 0)
(0.0489543 0.0244771 -6.91754e-19)
(0.0583049 0.0291524 1.2042e-18)
(0.0671054 0.0335526 -1.36977e-18)
(0.0753559 0.0376778 6.81746e-19)
(0.0830563 0.041528 -3.39429e-19)
(0.0902067 0.0451032 6.76076e-19)
(0.096807 0.0484033 -8.42154e-19)
(0.102857 0.0514284 -8.39184e-19)
(0.108357 0.0541785 5.01912e-19)
(0.113308 0.0566536 3.33677e-19)
(0.117708 0.0588536 0)
(0.121558 0.0607787 6.64048e-19)
(0.124858 0.0624287 -8.28378e-19)
(0.127608 0.0638037 -6.61451e-19)
(0.129808 0.0649037 6.60415e-19)
(0.131458 0.0657287 0)
(0.132558 0.0662787 0)
(0.133108 0.0665537 0)
(0.133108 0.0665536 9.86934e-19)
(0.132558 0.0662786 -1.15104e-18)
(0.131458 0.0657285 1.31557e-18)
(0.129808 0.0649035 -9.86815e-19)
(0.127607 0.0638034 4.93683e-19)
(0.124857 0.0624283 -1.31732e-18)
(0.121557 0.0607783 1.3186e-18)
(0.117707 0.0588532 -8.25096e-19)
(0.113306 0.056653 1.65227e-19)
(0.108356 0.0541779 3.31126e-19)
(0.102856 0.0514278 0)
(0.0968055 0.0484026 -6.65085e-19)
(0.0902052 0.0451025 8.33513e-19)
(0.0830547 0.0415273 6.68634e-19)
(0.0753543 0.0376771 9.41981e-23)
(0.0671038 0.0335518 -5.04643e-19)
(0.0583032 0.0291516 5.06558e-19)
(0.0489526 0.0244763 -8.47414e-19)
(0.039052 0.0195259 0)
(0.0286013 0.0143005 6.83815e-19)
(0.0176004 0.00880036 -6.87053e-19)
(0.00604899 0.00302595 -1.2248e-19)
(0.00605072 0.00302699 0)
(0.0176021 0.00880124 -8.79017e-19)
(0.028603 0.0143014 3.62479e-24)
(0.0390537 0.0195268 6.95002e-19)
(0.0489543 0.0244771 -1.72864e-19)
(0.0583049 0.0291524 0)
(0.0671054 0.0335526 -1.71159e-19)
(0.0753559 0.0376778 0)
(0.0830563 0.041528 1.69665e-19)
(0.0902066 0.0451032 -1.68993e-19)
(0.0968069 0.0484033 -1.68276e-19)
(0.102857 0.0514284 8.38794e-19)
(0.108357 0.0541785 -1.17061e-18)
(0.113308 0.0566536 6.66874e-19)
(0.117708 0.0588536 1.66259e-19)
(0.121558 0.0607787 0)
(0.124858 0.0624287 1.65523e-19)
(0.127608 0.0638037 1.6522e-19)
(0.129808 0.0649037 0)
(0.131458 0.0657287 1.64743e-19)
(0.132558 0.0662787 0)
(0.133108 0.0665537 1.64437e-19)
(0.133108 0.0665536 -1.6444e-19)
(0.132558 0.0662786 0)
(0.131458 0.0657286 -3.28674e-19)
(0.129808 0.0649035 1.64423e-19)
(0.127607 0.0638034 9.86698e-19)
(0.124857 0.0624284 8.2279e-19)
(0.121557 0.0607783 -6.58916e-19)
(0.117707 0.0588532 1.64979e-19)
(0.113307 0.0566531 4.95482e-19)
(0.108356 0.054178 -8.27377e-19)
(0.102856 0.0514278 0)
(0.0968056 0.0484027 0)
(0.0902052 0.0451025 0)
(0.0830548 0.0415273 -6.68239e-19)
(0.0753543 0.0376771 8.3791e-19)
(0.0671038 0.0335518 0)
(0.0583032 0.0291516 -3.37472e-19)
(0.0489526 0.0244763 1.01635e-18)
(0.039052 0.0195259 1.70047e-19)
(0.0286013 0.0143005 8.54211e-19)
(0.0176004 0.00880038 -6.86644e-19)
(0.00604892 0.00302609 4.89485e-19)
(0.00605065 0.00302712 1.00798e-18)
(0.0176021 0.00880126 -7.02773e-19)
(0.028603 0.0143014 -1.74593e-19)
(0.0390536 0.0195268 0)
(0.0489543 0.0244771 -6.9086e-19)
(0.0583048 0.0291524 1.37469e-18)
(0.0671053 0.0335526 -6.84049e-19)
(0.0753558 0.0376778 0)
(0.0830562 0.041528 6.78072e-19)
(0.0902066 0.0451032 -6.75393e-19)
(0.0968069 0.0484033 8.41176e-19)
(0.102857 0.0514284 -6.70611e-19)
(0.108357 0.0541785 -1.67173e-19)
(0.113308 0.0566536 -1.66692e-19)
(0.117708 0.0588536 -1.66257e-19)
(0.121558 0.0607787 0)
(0.124858 0.0624287 -1.6552e-19)
(0.127608 0.0638037 -1.65218e-19)
(0.129808 0.0649037 0)
(0.131458 0.0657287 -1.64741e-19)
(0.132558 0.0662787 0)
(0.133108 0.0665537 -1.64434e-19)
(0.133108 0.0665537 0)
(0.132558 0.0662786 0)
(0.131458 0.0657286 -1.64289e-19)
(0.129808 0.0649035 6.57103e-19)
(0.127607 0.0638035 -6.57507e-19)
(0.124857 0.0624284 -3.28942e-19)
(0.121557 0.0607783 4.9394e-19)
(0.117707 0.0588532 -8.24125e-19)
(0.113307 0.0566531 0)
(0.108356 0.054178 -4.9615e-19)
(0.102856 0.0514278 4.97149e-19)
(0.0968056 0.0484027 -1.66027e-19)
(0.0902052 0.0451025 0)
(0.0830548 0.0415273 0)
(0.0753543 0.0376771 0)
(0.0671038 0.0335519 1.67982e-19)
(0.0583033 0.0291516 5.05859e-19)
(0.0489526 0.0244763 -8.46507e-19)
(0.039052 0.0195259 5.09935e-19)
(0.0286013 0.0143005 -1.02451e-18)
(0.0176004 0.0088004 0)
(0.00604886 0.00302623 0)
(0.00605058 0.00302726 0)
(0.0176021 0.00880127 0)
(0.028603 0.0143014 3.49082e-19)
(0.0390536 0.0195268 8.67697e-19)
(0.0489542 0.0244771 -6.90464e-19)
(0.0583048 0.0291524 0)
(0.0671053 0.0335526 0)
(0.0753558 0.0376778 0)
(0.0830562 0.041528 0)
(0.0902065 0.0451032 6.74997e-19)
(0.0968069 0.0484033 -6.72515e-19)
(0.102857 0.0514284 0)
(0.108357 0.0541785 0)
(0.113308 0.0566536 0)
(0.117708 0.0588536 0)
(0.121558 0.0607787 0)
(0.124858 0.0624287 6.61504e-19)
(0.127608 0.0638038 -6.60298e-19)
(0.129808 0.0649038 0)
(0.131458 0.0657288 -6.58389e-19)
(0.132558 0.0662788 6.57695e-19)
(0.133108 0.0665537 0)
(0.133108 0.0665537 0)
(0.132558 0.0662787 0)
(0.131458 0.0657286 0)
(0.129808 0.0649036 -1.64132e-19)
(0.127607 0.0638035 -8.21324e-19)
(0.124857 0.0624284 1.64425e-19)
(0.121557 0.0607783 8.22721e-19)
(0.117707 0.0588532 3.29474e-19)
(0.113307 0.0566531 0)
(0.108356 0.054178 -1.65318e-19)
(0.102856 0.0514279 6.625e-19)
(0.0968056 0.0484027 -1.66027e-19)
(0.0902052 0.0451025 -1.66349e-19)
(0.0830548 0.0415273 -1.66813e-19)
(0.0753543 0.0376771 1.67324e-19)
(0.0671038 0.0335519 -1.67979e-19)
(0.0583033 0.0291516 0)
(0.0489527 0.0244763 -5.07618e-19)
(0.039052 0.0195259 1.35915e-18)
(0.0286013 0.0143005 -3.413e-19)
(0.0176004 0.00880042 0)
(0.00604879 0.00302637 1.2219e-19)
(0.00605051 0.0030274 0)
(0.0176021 0.00880128 0)
(0.028603 0.0143014 -1.74489e-19)
(0.0390536 0.0195267 -1.73498e-19)
(0.0489542 0.0244771 0)
(0.0583048 0.0291524 -1.71589e-19)
(0.0671053 0.0335526 -6.83251e-19)
(0.0753557 0.0376778 5.10176e-19)
(0.0830561 0.041528 -8.46558e-19)
(0.0902065 0.0451031 5.06004e-19)
(0.0968068 0.0484033 0)
(0.102857 0.0514284 0)
(0.108357 0.0541785 -1.66883e-19)
(0.113308 0.0566536 -1.66403e-19)
(0.117708 0.0588537 -1.65969e-19)
(0.121558 0.0607787 0)
(0.124858 0.0624287 -1.65233e-19)
(0.127608 0.0638038 0)
(0.129808 0.0649038 -1.64671e-19)
(0.131458 0.0657288 -1.64454e-19)
(0.132558 0.0662788 0)
(0.133108 0.0665538 -1.64147e-19)
(0.133108 0.0665537 -1.64057e-19)
(0.132558 0.0662787 1.64008e-19)
(0.131458 0.0657287 0)
(0.129808 0.0649036 9.43789e-23)
(0.127607 0.0638035 -1.64112e-19)
(0.124857 0.0624285 -8.21335e-19)
(0.121557 0.0607784 6.5775e-19)
(0.117707 0.0588533 -9.50488e-23)
(0.113307 0.0566532 6.59534e-19)
(0.108356 0.054178 -6.6069e-19)
(0.102856 0.0514279 1.65551e-19)
(0.0968056 0.0484027 -1.49304e-18)
(0.0902053 0.0451026 1.33048e-18)
(0.0830548 0.0415274 1.00057e-18)
(0.0753544 0.0376771 -8.36416e-19)
(0.0671039 0.0335519 8.39101e-19)
(0.0583033 0.0291516 -5.05358e-19)
(0.0489527 0.0244763 -6.76452e-19)
(0.039052 0.0195259 1.52808e-18)
(0.0286013 0.0143005 -3.41098e-19)
(0.0176004 0.00880043 -4.8681e-24)
(0.00604872 0.00302651 -4.88686e-19)
(0.00605044 0.00302753 0)
(0.017602 0.00880129 1.75338e-19)
(0.0286029 0.0143013 0)
(0.0390536 0.0195267 6.9339e-19)
(0.0489542 0.0244771 -1.37932e-18)
(0.0583048 0.0291523 1.71591e-19)
(0.0671053 0.0335526 6.82857e-19)
(0.0753557 0.0376778 9.61801e-23)
(0.0830561 0.041528 1.69271e-19)
(0.0902065 0.0451031 1.68601e-19)
(0.0968068 0.0484033 0)
(0.102857 0.0514284 0)
(0.108357 0.0541785 1.6688e-19)
(0.113307 0.0566536 1.664e-19)
(0.117708 0.0588537 8.29637e-19)
(0.121558 0.0607787 -6.62116e-19)
(0.124858 0.0624288 9.42762e-23)
(0.127608 0.0638038 -6.59518e-19)
(0.129808 0.0649038 8.23154e-19)
(0.131458 0.0657288 8.22066e-19)
(0.132558 0.0662788 -6.56921e-19)
(0.133108 0.0665538 1.64144e-19)
(0.133108 0.0665538 9.41282e-23)
(0.132558 0.0662787 -1.64005e-19)
(0.131458 0.0657287 0)
(0.129808 0.0649036 1.64033e-19)
(0.127607 0.0638036 1.64109e-19)
(0.124857 0.0624285 1.64227e-19)
(0.121557 0.0607784 -6.57355e-19)
(0.117707 0.0588533 6.58073e-19)
(0.113307 0.0566532 -4.94404e-19)
(0.108356 0.0541781 4.70113e-24)
(0.102856 0.0514279 6.6162e-19)
(0.0968057 0.0484027 -9.61147e-23)
(0.0902053 0.0451026 9.97189e-19)
(0.0830549 0.0415274 -9.9998e-19)
(0.0753544 0.0376771 -1.67125e-19)
(0.0671039 0.0335519 -9.76024e-23)
(0.0583033 0.0291516 -9.80437e-23)
(0.0489527 0.0244763 -6.76047e-19)
(0.039052 0.0195259 1.35742e-18)
(0.0286013 0.0143005 -5.11285e-19)
(0.0176004 0.00880045 0)
(0.00604866 0.00302665 4.8825e-19)
(0.00605037 0.00302767 0)
(0.017602 0.00880131 -1.75335e-19)
(0.0286029 0.0143013 -1.74188e-19)
(0.0390536 0.0195267 0)
(0.0489542 0.0244771 6.89255e-19)
(0.0583047 0.0291523 -5.14363e-19)
(0.0671052 0.0335526 -1.70566e-19)
(0.0753557 0.0376778 6.79466e-19)
(0.0830561 0.041528 -5.07422e-19)
(0.0902064 0.0451031 -1.68406e-19)
(0.0968068 0.0484033 0)
(0.102857 0.0514284 0)
(0.108357 0.0541785 1.66688e-19)
(0.113307 0.0566536 0)
(0.117708 0.0588537 1.65774e-19)
(0.121558 0.0607787 1.65384e-19)
(0.124858 0.0624288 9.42744e-23)
(0.127608 0.0638038 0)
(0.129808 0.0649038 -6.58092e-19)
(0.131458 0.0657288 1.31446e-18)
(0.132558 0.0662788 -6.56533e-19)
(0.133108 0.0665538 0)
(0.133108 0.0665538 1.63957e-19)
(0.132558 0.0662787 0)
(0.131458 0.0657287 1.63807e-19)
(0.129808 0.0649036 0)
(0.127607 0.0638036 0)
(0.124857 0.0624285 0)
(0.121557 0.0607784 1.64194e-19)
(0.117707 0.0588533 6.57676e-19)
(0.113307 0.0566532 -9.88129e-19)
(0.108356 0.0541781 0)
(0.102856 0.0514279 1.65258e-19)
(0.0968057 0.0484028 -8.28446e-19)
(0.0902053 0.0451026 4.98251e-19)
(0.0830549 0.0415274 6.66346e-19)
(0.0753544 0.0376772 -5.01173e-19)
(0.0671039 0.0335519 -1.67678e-19)
(0.0583033 0.0291516 -1.68282e-19)
(0.0489527 0.0244763 -1.01331e-18)
(0.039052 0.019526 5.08718e-19)
(0.0286013 0.0143005 1.70292e-19)
(0.0176004 0.00880047 0)
(0.00604859 0.00302678 -2.44014e-19)
(0.0060503 0.0030278 0)
(0.017602 0.00880132 0)
(0.0286029 0.0143013 1.74184e-19)
(0.0390536 0.0195267 6.9258e-19)
(0.0489542 0.0244771 -6.88857e-19)
(0.0583047 0.0291523 -8.56729e-19)
(0.0671052 0.0335526 8.52621e-19)
(0.0753557 0.0376778 1.69792e-19)
(0.0830561 0.041528 -8.45167e-19)
(0.0902064 0.0451031 1.01079e-22)
(0.0968067 0.0484033 5.03255e-19)
(0.102857 0.0514284 0)
(0.108357 0.0541785 -3.33274e-19)
(0.113307 0.0566536 0)
(0.117708 0.0588537 -1.6577e-19)
(0.121558 0.0607787 -1.65381e-19)
(0.124858 0.0624288 1.65035e-19)
(0.127608 0.0638038 -1.64639e-19)
(0.129808 0.0649038 0)
(0.131458 0.0657288 -1.64163e-19)
(0.132558 0.0662788 1.63988e-19)
(0.133108 0.0665538 0)
(0.133108 0.0665538 0)
(0.132558 0.0662788 -1.63717e-19)
(0.131458 0.0657287 -1.63803e-19)
(0.129808 0.0649037 0)
(0.127607 0.0638036 -1.63819e-19)
(0.124857 0.0624285 0)
(0.121557 0.0607784 -1.64191e-19)
(0.117707 0.0588533 -3.2869e-19)
(0.113307 0.0566532 -4.93718e-19)
(0.108356 0.0541781 6.59508e-19)
(0.102856 0.0514279 -3.30413e-19)
(0.0968057 0.0484028 0)
(0.0902053 0.0451026 -6.63995e-19)
(0.0830549 0.0415274 9.98781e-19)
(0.0753544 0.0376772 0)
(0.0671039 0.0335519 0)
(0.0583033 0.0291516 -1.68083e-19)
(0.0489527 0.0244763 1.68833e-19)
(0.039052 0.019526 0)
(0.0286013 0.0143005 5.10662e-19)
(0.0176004 0.00880049 -1.36834e-18)
(0.00604852 0.00302692 2.4387e-19)
(0.00605023 0.00302794 5.02253e-19)
(0.017602 0.00880134 0)
(0.0286029 0.0143013 0)
(0.0390536 0.0195267 0)
(0.0489541 0.0244771 1.72064e-19)
(0.0583047 0.0291523 0)
(0.0671052 0.0335526 5.11286e-19)
(0.0753556 0.0376778 -8.48173e-19)
(0.083056 0.041528 0)
(0.0902064 0.0451031 1.68304e-19)
(0.0968067 0.0484033 9.53041e-23)
(0.102857 0.0514284 -1.67016e-19)
(0.108357 0.0541785 1.66586e-19)
(0.113307 0.0566536 -1.66012e-19)
(0.117708 0.0588537 0)
(0.121558 0.0607787 0)
(0.124858 0.0624288 -1.64843e-19)
(0.127608 0.0638038 1.64635e-19)
(0.129808 0.0649038 0)
(0.131458 0.0657289 9.40885e-23)
(0.132558 0.0662789 -1.63985e-19)
(0.133108 0.0665538 -1.63759e-19)
(0.133108 0.0665538 0)
(0.132558 0.0662788 9.41819e-23)
(0.131458 0.0657287 0)
(0.129808 0.0649037 0)
(0.127607 0.0638036 1.63816e-19)
(0.124857 0.0624285 0)
(0.121557 0.0607785 0)
(0.117707 0.0588534 1.64294e-19)
(0.113307 0.0566532 0)
(0.108356 0.0541781 0)
(0.102856 0.051428 1.65155e-19)
(0.0968057 0.0484028 0)
(0.0902053 0.0451026 0)
(0.0830549 0.0415274 -6.65545e-19)
(0.0753544 0.0376772 5.00667e-19)
(0.0671039 0.0335519 -1.67379e-19)
(0.0583033 0.0291516 -3.36058e-19)
(0.0489527 0.0244763 1.012e-18)
(0.0390521 0.019526 -6.7753e-19)
(0.0286013 0.0143005 6.80544e-19)
(0.0176003 0.00880051 0)
(0.00604845 0.00302706 -1.21897e-19)
(0.00605016 0.00302808 0)
(0.017602 0.00880135 -1.74928e-19)
(0.0286029 0.0143013 0)
(0.0390536 0.0195267 0)
(0.0489541 0.0244771 -1.7206e-19)
(0.0583047 0.0291523 -1.71087e-19)
(0.0671052 0.0335526 8.51611e-19)
(0.0753556 0.0376778 -1.35625e-18)
(0.083056 0.041528 6.24602e-24)
(0.0902064 0.0451031 1.34525e-18)
(0.0968067 0.0484033 -5.02566e-19)
(0.102857 0.0514284 1.67012e-19)
(0.108357 0.0541785 0)
(0.113307 0.0566536 1.66008e-19)
(0.117708 0.0588537 0)
(0.121558 0.0607788 0)
(0.124858 0.0624288 1.64839e-19)
(0.127608 0.0638038 0)
(0.129808 0.0649039 0)
(0.131458 0.0657289 1.64062e-19)
(0.132558 0.0662789 0)
(0.133108 0.0665539 1.63755e-19)
(0.133108 0.0665538 0)
(0.132558 0.0662788 1.63615e-19)
(0.131458 0.0657288 0)
(0.129808 0.0649037 0)
(0.127607 0.0638036 0)
(0.124857 0.0624286 0)
(0.121557 0.0607785 0)
(0.117707 0.0588534 0)
(0.113307 0.0566533 0)
(0.108356 0.0541781 0)
(0.102856 0.051428 0)
(0.0968057 0.0484028 4.9619e-19)
(0.0902053 0.0451026 -6.63201e-19)
(0.0830549 0.0415274 -9.97571e-19)
(0.0753544 0.0376772 1.66826e-19)
(0.0671039 0.0335519 6.69405e-19)
(0.0583033 0.0291517 -1.67978e-19)
(0.0489527 0.0244763 -1.01157e-18)
(0.0390521 0.019526 6.26903e-24)
(0.0286014 0.0143005 -6.80118e-19)
(0.0176003 0.00880053 1.1959e-18)
(0.00604839 0.0030272 0)
(0.00605009 0.00302821 2.66638e-24)
(0.017602 0.00880137 1.04925e-18)
(0.0286029 0.0143013 -1.73779e-19)
(0.0390536 0.0195267 -1.72791e-19)
(0.0489541 0.0244771 -1.71861e-19)
(0.0583047 0.0291523 9.68895e-23)
(0.0671052 0.0335526 -8.51011e-19)
(0.0753556 0.0376778 6.77873e-19)
(0.083056 0.041528 -1.68677e-19)
(0.0902064 0.0451031 0)
(0.0968067 0.0484033 -1.6739e-19)
(0.102857 0.0514284 -1.66818e-19)
(0.108357 0.0541785 0)
(0.113307 0.0566536 -1.65815e-19)
(0.117708 0.0588537 -6.6171e-19)
(0.121558 0.0607788 4.95168e-19)
(0.124858 0.0624288 0)
(0.127608 0.0638038 0)
(0.129808 0.0649039 0)
(0.131458 0.0657289 0)
(0.132558 0.0662789 0)
(0.133108 0.0665539 0)
(0.133108 0.0665538 0)
(0.132558 0.0662788 0)
(0.131458 0.0657288 0)
(0.129808 0.0649037 0)
(0.127607 0.0638037 0)
(0.124857 0.0624286 0)
(0.121557 0.0607785 0)
(0.117707 0.0588534 0)
(0.113307 0.0566533 0)
(0.108356 0.0541781 0)
(0.102856 0.051428 0)
(0.0968057 0.0484028 -4.95793e-19)
(0.0902053 0.0451026 1.32559e-18)
(0.0830549 0.0415274 -9.96969e-19)
(0.0753544 0.0376772 8.33304e-19)
(0.0671039 0.0335519 9.75923e-23)
(0.0583033 0.0291517 1.67778e-19)
(0.0489527 0.0244763 0)
(0.0390521 0.019526 6.76707e-19)
(0.0286014 0.0143005 -1.18955e-18)
(0.0176003 0.00880054 1.70788e-19)
(0.00604832 0.00302734 2.43502e-19)
(0.00605002 0.00302835 -5.01377e-19)
(0.017602 0.00880138 -1.74821e-19)
(0.0286029 0.0143013 1.73774e-19)
(0.0390535 0.0195267 1.72787e-19)
(0.0489541 0.0244771 1.71856e-19)
(0.0583047 0.0291523 1.70981e-19)
(0.0671052 0.0335526 1.7016e-19)
(0.0753556 0.0376778 8.46759e-19)
(0.083056 0.041528 -1.18033e-18)
(0.0902063 0.0451031 6.93205e-24)
(0.0968067 0.0484033 1.67393e-19)
(0.102857 0.0514284 1.50095e-18)
(0.108357 0.0541785 -4.98777e-19)
(0.113307 0.0566536 1.65811e-19)
(0.117708 0.0588537 1.65282e-19)
(0.121558 0.0607788 1.64988e-19)
(0.124858 0.0624288 1.64548e-19)
(0.127608 0.0638039 0)
(0.129808 0.0649039 6.56136e-19)
(0.131458 0.0657289 -6.55278e-19)
(0.132558 0.0662789 0)
(0.133108 0.0665539 1.63465e-19)
(0.133108 0.0665539 0)
(0.132558 0.0662788 0)
(0.131458 0.0657288 0)
(0.129808 0.0649037 0)
(0.127607 0.0638037 0)
(0.124857 0.0624286 0)
(0.121557 0.0607785 0)
(0.117707 0.0588534 1.63903e-19)
(0.113307 0.0566533 -6.5677e-19)
(0.108356 0.0541781 8.22353e-19)
(0.102856 0.051428 -1.64761e-19)
(0.0968057 0.0484028 0)
(0.0902053 0.0451026 -1.6555e-19)
(0.0830549 0.0415274 4.9813e-19)
(0.0753544 0.0376772 -1.04055e-22)
(0.0671039 0.0335519 -1.33688e-18)
(0.0583033 0.0291517 1.17402e-18)
(0.0489527 0.0244764 -1.51532e-18)
(0.0390521 0.019526 6.76301e-19)
(0.0286014 0.0143005 -1.69874e-19)
(0.0176003 0.00880056 1.70577e-19)
(0.00604825 0.00302747 -7.2977e-19)
(0.00604995 0.00302849 5.01081e-19)
(0.017602 0.0088014 -8.17563e-24)
(0.0286029 0.0143013 -1.38898e-18)
(0.0390535 0.0195267 6.90545e-19)
(0.0489541 0.0244771 0)
(0.0583047 0.0291523 0)
(0.0671051 0.0335526 0)
(0.0753556 0.0376778 0)
(0.083056 0.041528 6.74095e-19)
(0.0902063 0.0451031 -7.28741e-24)
(0.0968066 0.0484033 -6.68957e-19)
(0.102857 0.0514284 0)
(0.108357 0.0541785 -1.6619e-19)
(0.113307 0.0566536 0)
(0.117708 0.0588537 -1.65278e-19)
(0.121558 0.0607788 0)
(0.124858 0.0624288 -3.28994e-19)
(0.127608 0.0638039 0)
(0.129808 0.0649039 -1.6389e-19)
(0.131458 0.0657289 0)
(0.132558 0.0662789 -1.63499e-19)
(0.133108 0.0665539 -1.63461e-19)
(0.133108 0.0665539 0)
(0.132558 0.0662788 -1.63227e-19)
(0.131458 0.0657288 0)
(0.129808 0.0649037 0)
(0.127607 0.0638037 0)
(0.124857 0.0624286 -1.63444e-19)
(0.121557 0.0607785 0)
(0.117707 0.0588534 -9.50327e-23)
(0.113307 0.0566533 1.64046e-19)
(0.108356 0.0541782 -1.64427e-19)
(0.102856 0.051428 9.57949e-23)
(0.0968057 0.0484028 0)
(0.0902053 0.0451026 1.65546e-19)
(0.0830549 0.0415274 -8.29746e-19)
(0.0753544 0.0376772 6.65774e-19)
(0.0671039 0.0335519 9.75874e-23)
(0.0583033 0.0291517 6.70485e-19)
(0.0489527 0.0244764 -1.34608e-18)
(0.0390521 0.019526 6.75887e-19)
(0.0286014 0.0143005 0)
(0.0176003 0.00880058 -1.70572e-19)
(0.00604818 0.00302761 1.21531e-19)
(0.00604988 0.00302862 -6.2595e-19)
(0.0176019 0.00880141 6.98259e-19)
(0.0286029 0.0143013 -1.7347e-19)
(0.0390535 0.0195267 1.72484e-19)
(0.0489541 0.0244771 -1.71555e-19)
(0.0583047 0.0291523 1.70681e-19)
(0.0671051 0.0335526 0)
(0.0753556 0.0376778 1.69093e-19)
(0.083056 0.041528 -1.68376e-19)