/*--------------------------------*- C++ -*----------------------------------*\
  =========                 |
  \\      /  F ield         | OpenFOAM: The Open Source CFD Toolbox
   \\    /   O peration     | Website:  https://openfoam.org
    \\  /    A nd           | Version:  11
     \\/     M anipulation  |
\*---------------------------------------------------------------------------*/
FoamFile
{
    format      ascii;
    class       volScalarField;
    location    "1601";
    object      p;
}
// * * * * * * * * * * * * * * * * * * * * * * * * * * * * * * * * * * * * * //

dimensions      [0 2 -2 0 0 0 0];

internalField   nonuniform List<scalar> 
212003
(
0.99991
0.99991
0.999909
0.999909
0.999909
0.999909
0.999909
0.999909
0.999909
0.999909
0.999909
0.999909
0.999908
0.999908
0.999908
0.999908
0.999908
0.999908
0.999908
0.999908
0.999908
0.999908
0.999908
0.999907
0.999907
0.999907
0.999907
0.999907
0.999907
0.999907
0.999907
0.999907
0.999907
0.999906
0.999906
0.999906
0.999906
0.999906
0.999906
0.999906
0.999906
0.999906
0.999906
0.999905
0.999905
0.999905
0.999905
0.999905
0.999905
0.999905
0.999905
0.999905
0.999905
0.999905
0.999904
0.999904
0.999904
0.999904
0.999904
0.999904
0.999904
0.999904
0.999904
0.999904
0.999903
0.999903
0.999903
0.999903
0.999903
0.999903
0.999903
0.999903
0.999903
0.999903
0.999902
0.999902
0.999902
0.999902
0.999902
0.999902
0.999902
0.999902
0.999902
0.999902
0.999901
0.999901
0.999901
0.999901
0.999901
0.999901
0.999901
0.999901
0.999729
0.999729
0.999728
0.999728
0.999728
0.999727
0.999727
0.999727
0.999727
0.999726
0.999726
0.999726
0.999725
0.999725
0.999725
0.999725
0.999724
0.999724
0.999724
0.999723
0.999723
0.999723
0.999723
0.999722
0.999722
0.999722
0.999721
0.999721
0.999721
0.99972
0.99972
0.99972
0.99972
0.999719
0.999719
0.999719
0.999718
0.999718
0.999718
0.999718
0.999717
0.999717
0.999717
0.999716
0.999716
0.999716
0.999716
0.999715
0.999715
0.999715
0.999714
0.999714
0.999714
0.999714
0.999713
0.999713
0.999713
0.999712
0.999712
0.999712
0.999711
0.999711
0.999711
0.999711
0.99971
0.99971
0.99971
0.999709
0.999709
0.999709
0.999709
0.999708
0.999708
0.999708
0.999707
0.999707
0.999707
0.999707
0.999706
0.999706
0.999706
0.999705
0.999705
0.999705
0.999704
0.999704
0.999704
0.999704
0.999703
0.999703
0.999703
0.999702
0.999548
0.999548
0.999547
0.999547
0.999546
0.999546
0.999545
0.999545
0.999544
0.999544
0.999543
0.999543
0.999542
0.999542
0.999541
0.999541
0.99954
0.99954
0.999539
0.999539
0.999539
0.999538
0.999538
0.999537
0.999537
0.999536
0.999536
0.999535
0.999535
0.999534
0.999534
0.999533
0.999533
0.999532
0.999532
0.999531
0.999531
0.99953
0.99953
0.999529
0.999529
0.999528
0.999528
0.999527
0.999527
0.999526
0.999526
0.999525
0.999525
0.999524
0.999524
0.999523
0.999523
0.999523
0.999522
0.999522
0.999521
0.999521
0.99952
0.99952
0.999519
0.999519
0.999518
0.999518
0.999517
0.999517
0.999516
0.999516
0.999515
0.999515
0.999514
0.999514
0.999513
0.999513
0.999512
0.999512
0.999511
0.999511
0.99951
0.99951
0.999509
0.999509
0.999508
0.999508
0.999507
0.999507
0.999506
0.999506
0.999506
0.999505
0.999505
0.999504
0.999368
0.999367
0.999366
0.999365
0.999365
0.999364
0.999363
0.999363
0.999362
0.999361
0.999361
0.99936
0.999359
0.999359
0.999358
0.999357
0.999357
0.999356
0.999355
0.999355
0.999354
0.999353
0.999353
0.999352
0.999351
0.999351
0.99935
0.999349
0.999348
0.999348
0.999347
0.999346
0.999346
0.999345
0.999344
0.999344
0.999343
0.999342
0.999342
0.999341
0.99934
0.99934
0.999339
0.999338
0.999338
0.999337
0.999336
0.999336
0.999335
0.999334
0.999334
0.999333
0.999332
0.999331
0.999331
0.99933
0.999329
0.999329
0.999328
0.999327
0.999327
0.999326
0.999325
0.999325
0.999324
0.999323
0.999323
0.999322
0.999321
0.999321
0.99932
0.999319
0.999319
0.999318
0.999317
0.999317
0.999316
0.999315
0.999315
0.999314
0.999313
0.999312
0.999312
0.999311
0.99931
0.99931
0.999309
0.999308
0.999308
0.999307
0.999306
0.999306
0.999187
0.999186
0.999185
0.999184
0.999183
0.999182
0.999182
0.999181
0.99918
0.999179
0.999178
0.999177
0.999176
0.999175
0.999175
0.999174
0.999173
0.999172
0.999171
0.99917
0.999169
0.999168
0.999168
0.999167
0.999166
0.999165
0.999164
0.999163
0.999162
0.999161
0.999161
0.99916
0.999159
0.999158
0.999157
0.999156
0.999155
0.999154
0.999154
0.999153
0.999152
0.999151
0.99915
0.999149
0.999148
0.999147
0.999147
0.999146
0.999145
0.999144
0.999143
0.999142
0.999141
0.99914
0.99914
0.999139
0.999138
0.999137
0.999136
0.999135
0.999134
0.999134
0.999133
0.999132
0.999131
0.99913
0.999129
0.999128
0.999127
0.999127
0.999126
0.999125
0.999124
0.999123
0.999122
0.999121
0.99912
0.99912
0.999119
0.999118
0.999117
0.999116
0.999115
0.999114
0.999113
0.999113
0.999112
0.999111
0.99911
0.999109
0.999108
0.999107
0.999006
0.999005
0.999004
0.999003
0.999002
0.999001
0.999
0.998999
0.998998
0.998996
0.998995
0.998994
0.998993
0.998992
0.998991
0.99899
0.998989
0.998988
0.998987
0.998986
0.998985
0.998984
0.998983
0.998981
0.99898
0.998979
0.998978
0.998977
0.998976
0.998975
0.998974
0.998973
0.998972
0.998971
0.99897
0.998969
0.998968
0.998967
0.998965
0.998964
0.998963
0.998962
0.998961
0.99896
0.998959
0.998958
0.998957
0.998956
0.998955
0.998954
0.998953
0.998952
0.998951
0.998949
0.998948
0.998947
0.998946
0.998945
0.998944
0.998943
0.998942
0.998941
0.99894
0.998939
0.998938
0.998937
0.998936
0.998935
0.998933
0.998932
0.998931
0.99893
0.998929
0.998928
0.998927
0.998926
0.998925
0.998924
0.998923
0.998922
0.998921
0.99892
0.998919
0.998917
0.998916
0.998915
0.998914
0.998913
0.998912
0.998911
0.99891
0.998909
0.998825
0.998824
0.998823
0.998822
0.99882
0.998819
0.998818
0.998816
0.998815
0.998814
0.998813
0.998811
0.99881
0.998809
0.998808
0.998806
0.998805
0.998804
0.998803
0.998801
0.9988
0.998799
0.998798
0.998796
0.998795
0.998794
0.998793
0.998791
0.99879
0.998789
0.998787
0.998786
0.998785
0.998784
0.998782
0.998781
0.99878
0.998779
0.998777
0.998776
0.998775
0.998774
0.998772
0.998771
0.99877
0.998769
0.998767
0.998766
0.998765
0.998764
0.998762
0.998761
0.99876
0.998758
0.998757
0.998756
0.998755
0.998753
0.998752
0.998751
0.99875
0.998748
0.998747
0.998746
0.998745
0.998743
0.998742
0.998741
0.99874
0.998738
0.998737
0.998736
0.998735
0.998733
0.998732
0.998731
0.998729
0.998728
0.998727
0.998726
0.998724
0.998723
0.998722
0.998721
0.998719
0.998718
0.998717
0.998716
0.998714
0.998713
0.998712
0.99871
0.998645
0.998643
0.998642
0.99864
0.998639
0.998637
0.998636
0.998634
0.998633
0.998631
0.99863
0.998629
0.998627
0.998626
0.998624
0.998623
0.998621
0.99862
0.998618
0.998617
0.998615
0.998614
0.998613
0.998611
0.99861
0.998608
0.998607
0.998605
0.998604
0.998602
0.998601
0.998599
0.998598
0.998597
0.998595
0.998594
0.998592
0.998591
0.998589
0.998588
0.998586
0.998585
0.998583
0.998582
0.998581
0.998579
0.998578
0.998576
0.998575
0.998573
0.998572
0.99857
0.998569
0.998567
0.998566
0.998565
0.998563
0.998562
0.99856
0.998559
0.998557
0.998556
0.998554
0.998553
0.998551
0.99855
0.998549
0.998547
0.998546
0.998544
0.998543
0.998541
0.99854
0.998538
0.998537
0.998535
0.998534
0.998533
0.998531
0.99853
0.998528
0.998527
0.998525
0.998524
0.998522
0.998521
0.998519
0.998518
0.998517
0.998515
0.998514
0.998512
0.998464
0.998462
0.998461
0.998459
0.998457
0.998456
0.998454
0.998452
0.998451
0.998449
0.998447
0.998446
0.998444
0.998442
0.998441
0.998439
0.998437
0.998436
0.998434
0.998433
0.998431
0.998429
0.998428
0.998426
0.998424
0.998423
0.998421
0.998419
0.998418
0.998416
0.998414
0.998413
0.998411
0.998409
0.998408
0.998406
0.998405
0.998403
0.998401
0.9984
0.998398
0.998396
0.998395
0.998393
0.998391
0.99839
0.998388
0.998386
0.998385
0.998383
0.998381
0.99838
0.998378
0.998376
0.998375
0.998373
0.998372
0.99837
0.998368
0.998367
0.998365
0.998363
0.998362
0.99836
0.998358
0.998357
0.998355
0.998353
0.998352
0.99835
0.998348
0.998347
0.998345
0.998344
0.998342
0.99834
0.998339
0.998337
0.998335
0.998334
0.998332
0.99833
0.998329
0.998327
0.998325
0.998324
0.998322
0.99832
0.998319
0.998317
0.998315
0.998314
0.998283
0.998281
0.998279
0.998278
0.998276
0.998274
0.998272
0.99827
0.998268
0.998267
0.998265
0.998263
0.998261
0.998259
0.998257
0.998256
0.998254
0.998252
0.99825
0.998248
0.998246
0.998244
0.998243
0.998241
0.998239
0.998237
0.998235
0.998233
0.998232
0.99823
0.998228
0.998226
0.998224
0.998222
0.99822
0.998219
0.998217
0.998215
0.998213
0.998211
0.998209
0.998208
0.998206
0.998204
0.998202
0.9982
0.998198
0.998197
0.998195
0.998193
0.998191
0.998189
0.998187
0.998185
0.998184
0.998182
0.99818
0.998178
0.998176
0.998174
0.998173
0.998171
0.998169
0.998167
0.998165
0.998163
0.998162
0.99816
0.998158
0.998156
0.998154
0.998152
0.99815
0.998149
0.998147
0.998145
0.998143
0.998141
0.998139
0.998138
0.998136
0.998134
0.998132
0.99813
0.998128
0.998127
0.998125
0.998123
0.998121
0.998119
0.998117
0.998115
0.998103
0.998101
0.998098
0.998096
0.998094
0.998092
0.99809
0.998088
0.998086
0.998084
0.998082
0.99808
0.998078
0.998076
0.998074
0.998072
0.99807
0.998068
0.998066
0.998064
0.998062
0.99806
0.998058
0.998056
0.998054
0.998052
0.998049
0.998047
0.998045
0.998043
0.998041
0.998039
0.998037
0.998035
0.998033
0.998031
0.998029
0.998027
0.998025
0.998023
0.998021
0.998019
0.998017
0.998015
0.998013
0.998011
0.998009
0.998007
0.998005
0.998003
0.998001
0.997999
0.997997
0.997994
0.997992
0.99799
0.997988
0.997986
0.997984
0.997982
0.99798
0.997978
0.997976
0.997974
0.997972
0.99797
0.997968
0.997966
0.997964
0.997962
0.99796
0.997958
0.997956
0.997954
0.997952
0.99795
0.997948
0.997946
0.997944
0.997942
0.997939
0.997937
0.997935
0.997933
0.997931
0.997929
0.997927
0.997925
0.997923
0.997921
0.997919
0.997917
0.997922
0.99792
0.997917
0.997915
0.997913
0.997911
0.997908
0.997906
0.997904
0.997902
0.997899
0.997897
0.997895
0.997893
0.99789
0.997888
0.997886
0.997884
0.997882
0.997879
0.997877
0.997875
0.997873
0.99787
0.997868
0.997866
0.997864
0.997861
0.997859
0.997857
0.997855
0.997853
0.99785
0.997848
0.997846
0.997844
0.997841
0.997839
0.997837
0.997835
0.997832
0.99783
0.997828
0.997826
0.997824
0.997821
0.997819
0.997817
0.997815
0.997812
0.99781
0.997808
0.997806
0.997803
0.997801
0.997799
0.997797
0.997795
0.997792
0.99779
0.997788
0.997786
0.997783
0.997781
0.997779
0.997777
0.997774
0.997772
0.99777
0.997768
0.997766
0.997763
0.997761
0.997759
0.997757
0.997754
0.997752
0.99775
0.997748
0.997745
0.997743
0.997741
0.997739
0.997737
0.997734
0.997732
0.99773
0.997728
0.997725
0.997723
0.997721
0.997718
0.997741
0.997739
0.997736
0.997734
0.997731
0.997729
0.997726
0.997724
0.997722
0.997719
0.997717
0.997714
0.997712
0.997709
0.997707
0.997705
0.997702
0.9977
0.997697
0.997695
0.997692
0.99769
0.997688
0.997685
0.997683
0.99768
0.997678
0.997676
0.997673
0.997671
0.997668
0.997666
0.997663
0.997661
0.997659
0.997656
0.997654
0.997651
0.997649
0.997646
0.997644
0.997642
0.997639
0.997637
0.997634
0.997632
0.997629
0.997627
0.997625
0.997622
0.99762
0.997617
0.997615
0.997612
0.99761
0.997608
0.997605
0.997603
0.9976
0.997598
0.997595
0.997593
0.997591
0.997588
0.997586
0.997583
0.997581
0.997579
0.997576
0.997574
0.997571
0.997569
0.997566
0.997564
0.997562
0.997559
0.997557
0.997554
0.997552
0.997549
0.997547
0.997545
0.997542
0.99754
0.997537
0.997535
0.997532
0.99753
0.997528
0.997525
0.997523
0.99752
0.997561
0.997558
0.997555
0.997552
0.99755
0.997547
0.997545
0.997542
0.997539
0.997537
0.997534
0.997531
0.997529
0.997526
0.997524
0.997521
0.997518
0.997516
0.997513
0.99751
0.997508
0.997505
0.997503
0.9975
0.997497
0.997495
0.997492
0.99749
0.997487
0.997484
0.997482
0.997479
0.997476
0.997474
0.997471
0.997469
0.997466
0.997463
0.997461
0.997458
0.997456
0.997453
0.99745
0.997448
0.997445
0.997442
0.99744
0.997437
0.997435
0.997432
0.997429
0.997427
0.997424
0.997421
0.997419
0.997416
0.997414
0.997411
0.997408
0.997406
0.997403
0.997401
0.997398
0.997395
0.997393
0.99739
0.997387
0.997385
0.997382
0.99738
0.997377
0.997374
0.997372
0.997369
0.997366
0.997364
0.997361
0.997359
0.997356
0.997353
0.997351
0.997348
0.997346
0.997343
0.99734
0.997338
0.997335
0.997332
0.99733
0.997327
0.997324
0.997322
0.99738
0.997377
0.997374
0.997371
0.997368
0.997365
0.997363
0.99736
0.997357
0.997354
0.997351
0.997349
0.997346
0.997343
0.99734
0.997337
0.997335
0.997332
0.997329
0.997326
0.997323
0.99732
0.997318
0.997315
0.997312
0.997309
0.997306
0.997304
0.997301
0.997298
0.997295
0.997292
0.99729
0.997287
0.997284
0.997281
0.997278
0.997275
0.997273
0.99727
0.997267
0.997264
0.997261
0.997259
0.997256
0.997253
0.99725
0.997247
0.997245
0.997242
0.997239
0.997236
0.997233
0.99723
0.997228
0.997225
0.997222
0.997219
0.997216
0.997214
0.997211
0.997208
0.997205
0.997202
0.9972
0.997197
0.997194
0.997191
0.997188
0.997185
0.997183
0.99718
0.997177
0.997174
0.997171
0.997169
0.997166
0.997163
0.99716
0.997157
0.997155
0.997152
0.997149
0.997146
0.997143
0.99714
0.997138
0.997135
0.997132
0.997129
0.997126
0.997123
0.997199
0.997196
0.997193
0.99719
0.997187
0.997184
0.997181
0.997178
0.997175
0.997172
0.997169
0.997166
0.997163
0.99716
0.997157
0.997154
0.997151
0.997148
0.997145
0.997142
0.997139
0.997136
0.997133
0.99713
0.997127
0.997124
0.997121
0.997118
0.997115
0.997112
0.997109
0.997106
0.997103
0.9971
0.997097
0.997094
0.997091
0.997088
0.997085
0.997082
0.997079
0.997076
0.997073
0.99707
0.997067
0.997064
0.997061
0.997057
0.997054
0.997051
0.997048
0.997045
0.997042
0.997039
0.997036
0.997033
0.99703
0.997027
0.997024
0.997021
0.997018
0.997015
0.997012
0.997009
0.997006
0.997003
0.997
0.996997
0.996994
0.996991
0.996988
0.996985
0.996982
0.996979
0.996976
0.996973
0.99697
0.996967
0.996964
0.996961
0.996958
0.996955
0.996952
0.996949
0.996946
0.996943
0.99694
0.996937
0.996934
0.996931
0.996928
0.996925
0.997019
0.997015
0.997012
0.997008
0.997005
0.997002
0.996999
0.996996
0.996992
0.996989
0.996986
0.996983
0.99698
0.996976
0.996973
0.99697
0.996967
0.996964
0.99696
0.996957
0.996954
0.996951
0.996948
0.996944
0.996941
0.996938
0.996935
0.996932
0.996928
0.996925
0.996922
0.996919
0.996916
0.996912
0.996909
0.996906
0.996903
0.9969
0.996896
0.996893
0.99689
0.996887
0.996884
0.99688
0.996877
0.996874
0.996871
0.996868
0.996864
0.996861
0.996858
0.996855
0.996852
0.996848
0.996845
0.996842
0.996839
0.996836
0.996832
0.996829
0.996826
0.996823
0.99682
0.996816
0.996813
0.99681
0.996807
0.996804
0.9968
0.996797
0.996794
0.996791
0.996788
0.996784
0.996781
0.996778
0.996775
0.996772
0.996768
0.996765
0.996762
0.996759
0.996756
0.996752
0.996749
0.996746
0.996743
0.99674
0.996736
0.996733
0.99673
0.996726
0.996838
0.996834
0.996831
0.996827
0.996824
0.99682
0.996817
0.996814
0.99681
0.996807
0.996803
0.9968
0.996797
0.996793
0.99679
0.996786
0.996783
0.99678
0.996776
0.996773
0.996769
0.996766
0.996763
0.996759
0.996756
0.996752
0.996749
0.996746
0.996742
0.996739
0.996736
0.996732
0.996729
0.996725
0.996722
0.996719
0.996715
0.996712
0.996708
0.996705
0.996702
0.996698
0.996695
0.996691
0.996688
0.996685
0.996681
0.996678
0.996674
0.996671
0.996668
0.996664
0.996661
0.996657
0.996654
0.996651
0.996647
0.996644
0.99664
0.996637
0.996634
0.99663
0.996627
0.996624
0.99662
0.996617
0.996613
0.99661
0.996607
0.996603
0.9966
0.996596
0.996593
0.99659
0.996586
0.996583
0.996579
0.996576
0.996573
0.996569
0.996566
0.996562
0.996559
0.996556
0.996552
0.996549
0.996545
0.996542
0.996539
0.996535
0.996532
0.996528
0.996657
0.996653
0.996649
0.996646
0.996642
0.996639
0.996635
0.996632
0.996628
0.996624
0.996621
0.996617
0.996614
0.99661
0.996606
0.996603
0.996599
0.996596
0.996592
0.996588
0.996585
0.996581
0.996578
0.996574
0.996571
0.996567
0.996563
0.99656
0.996556
0.996553
0.996549
0.996545
0.996542
0.996538
0.996535
0.996531
0.996527
0.996524
0.99652
0.996517
0.996513
0.99651
0.996506
0.996502
0.996499
0.996495
0.996492
0.996488
0.996484
0.996481
0.996477
0.996474
0.99647
0.996466
0.996463
0.996459
0.996456
0.996452
0.996449
0.996445
0.996441
0.996438
0.996434
0.996431
0.996427
0.996423
0.99642
0.996416
0.996413
0.996409
0.996405
0.996402
0.996398
0.996395
0.996391
0.996387
0.996384
0.99638
0.996377
0.996373
0.99637
0.996366
0.996362
0.996359
0.996355
0.996352
0.996348
0.996344
0.996341
0.996337
0.996333
0.99633
0.996476
0.996472
0.996468
0.996465
0.996461
0.996457
0.996453
0.996449
0.996446
0.996442
0.996438
0.996434
0.996431
0.996427
0.996423
0.996419
0.996415
0.996412
0.996408
0.996404
0.9964
0.996396
0.996393
0.996389
0.996385
0.996381
0.996378
0.996374
0.99637
0.996366
0.996362
0.996359
0.996355
0.996351
0.996347
0.996344
0.99634
0.996336
0.996332
0.996328
0.996325
0.996321
0.996317
0.996313
0.996309
0.996306
0.996302
0.996298
0.996294
0.996291
0.996287
0.996283
0.996279
0.996275
0.996272
0.996268
0.996264
0.99626
0.996257
0.996253
0.996249
0.996245
0.996241
0.996238
0.996234
0.99623
0.996226
0.996222
0.996219
0.996215
0.996211
0.996207
0.996204
0.9962
0.996196
0.996192
0.996188
0.996185
0.996181
0.996177
0.996173
0.99617
0.996166
0.996162
0.996158
0.996154
0.996151
0.996147
0.996143
0.996139
0.996135
0.996131
0.996296
0.996292
0.996287
0.996283
0.996279
0.996275
0.996271
0.996267
0.996263
0.996259
0.996255
0.996251
0.996247
0.996244
0.99624
0.996236
0.996232
0.996228
0.996224
0.99622
0.996216
0.996212
0.996208
0.996204
0.9962
0.996196
0.996192
0.996188
0.996184
0.99618
0.996176
0.996172
0.996168
0.996164
0.99616
0.996156
0.996152
0.996148
0.996144
0.99614
0.996136
0.996132
0.996128
0.996124
0.99612
0.996116
0.996112
0.996108
0.996104
0.9961
0.996096
0.996092
0.996088
0.996084
0.99608
0.996076
0.996073
0.996069
0.996065
0.996061
0.996057
0.996053
0.996049
0.996045
0.996041
0.996037
0.996033
0.996029
0.996025
0.996021
0.996017
0.996013
0.996009
0.996005
0.996001
0.995997
0.995993
0.995989
0.995985
0.995981
0.995977
0.995973
0.995969
0.995965
0.995961
0.995957
0.995953
0.995949
0.995945
0.995941
0.995937
0.995933
0.996115
0.996111
0.996106
0.996102
0.996098
0.996094
0.996089
0.996085
0.996081
0.996077
0.996073
0.996069
0.996064
0.99606
0.996056
0.996052
0.996048
0.996044
0.996039
0.996035
0.996031
0.996027
0.996023
0.996019
0.996014
0.99601
0.996006
0.996002
0.995998
0.995994
0.995989
0.995985
0.995981
0.995977
0.995973
0.995969
0.995964
0.99596
0.995956
0.995952
0.995948
0.995943
0.995939
0.995935
0.995931
0.995927
0.995923
0.995918
0.995914
0.99591
0.995906
0.995902
0.995898
0.995893
0.995889
0.995885
0.995881
0.995877
0.995873
0.995868
0.995864
0.99586
0.995856
0.995852
0.995848
0.995843
0.995839
0.995835
0.995831
0.995827
0.995823
0.995818
0.995814
0.99581
0.995806
0.995802
0.995798
0.995793
0.995789
0.995785
0.995781
0.995777
0.995772
0.995768
0.995764
0.99576
0.995756
0.995752
0.995747
0.995743
0.995739
0.995734
0.995934
0.99593
0.995925
0.995921
0.995916
0.995912
0.995908
0.995903
0.995899
0.995894
0.99589
0.995886
0.995881
0.995877
0.995873
0.995868
0.995864
0.99586
0.995855
0.995851
0.995846
0.995842
0.995838
0.995833
0.995829
0.995825
0.99582
0.995816
0.995812
0.995807
0.995803
0.995798
0.995794
0.99579
0.995785
0.995781
0.995777
0.995772
0.995768
0.995764
0.995759
0.995755
0.99575
0.995746
0.995742
0.995737
0.995733
0.995729
0.995724
0.99572
0.995716
0.995711
0.995707
0.995702
0.995698
0.995694
0.995689
0.995685
0.995681
0.995676
0.995672
0.995668
0.995663
0.995659
0.995654
0.99565
0.995646
0.995641
0.995637
0.995633
0.995628
0.995624
0.99562
0.995615
0.995611
0.995606
0.995602
0.995598
0.995593
0.995589
0.995585
0.99558
0.995576
0.995571
0.995567
0.995563
0.995558
0.995554
0.99555
0.995545
0.995541
0.995536
0.995754
0.995749
0.995744
0.995739
0.995735
0.99573
0.995726
0.995721
0.995717
0.995712
0.995707
0.995703
0.995698
0.995694
0.995689
0.995685
0.99568
0.995676
0.995671
0.995666
0.995662
0.995657
0.995653
0.995648
0.995644
0.995639
0.995635
0.99563
0.995625
0.995621
0.995616
0.995612
0.995607
0.995603
0.995598
0.995593
0.995589
0.995584
0.99558
0.995575
0.995571
0.995566
0.995562
0.995557
0.995552
0.995548
0.995543
0.995539
0.995534
0.99553
0.995525
0.995521
0.995516
0.995511
0.995507
0.995502
0.995498
0.995493
0.995489
0.995484
0.99548
0.995475
0.99547
0.995466
0.995461
0.995457
0.995452
0.995448
0.995443
0.995438
0.995434
0.995429
0.995425
0.99542
0.995416
0.995411
0.995407
0.995402
0.995397
0.995393
0.995388
0.995384
0.995379
0.995375
0.99537
0.995366
0.995361
0.995356
0.995352
0.995347
0.995342
0.995338
0.995573
0.995568
0.995563
0.995558
0.995553
0.995549
0.995544
0.995539
0.995534
0.99553
0.995525
0.99552
0.995515
0.995511
0.995506
0.995501
0.995496
0.995492
0.995487
0.995482
0.995477
0.995473
0.995468
0.995463
0.995458
0.995453
0.995449
0.995444
0.995439
0.995434
0.99543
0.995425
0.99542
0.995415
0.995411
0.995406
0.995401
0.995396
0.995392
0.995387
0.995382
0.995377
0.995373
0.995368
0.995363
0.995358
0.995354
0.995349
0.995344
0.995339
0.995335
0.99533
0.995325
0.99532
0.995316
0.995311
0.995306
0.995301
0.995297
0.995292
0.995287
0.995282
0.995278
0.995273
0.995268
0.995263
0.995259
0.995254
0.995249
0.995244
0.99524
0.995235
0.99523
0.995225
0.995221
0.995216
0.995211
0.995206
0.995202
0.995197
0.995192
0.995187
0.995183
0.995178
0.995173
0.995168
0.995164
0.995159
0.995154
0.995149
0.995144
0.995139
0.995392
0.995387
0.995382
0.995377
0.995372
0.995367
0.995362
0.995357
0.995352
0.995347
0.995342
0.995337
0.995332
0.995327
0.995322
0.995317
0.995312
0.995307
0.995303
0.995298
0.995293
0.995288
0.995283
0.995278
0.995273
0.995268
0.995263
0.995258
0.995253
0.995248
0.995243
0.995238
0.995233
0.995228
0.995223
0.995218
0.995214
0.995209
0.995204
0.995199
0.995194
0.995189
0.995184
0.995179
0.995174
0.995169
0.995164
0.995159
0.995154
0.995149
0.995144
0.995139
0.995134
0.995129
0.995124
0.99512
0.995115
0.99511
0.995105
0.9951
0.995095
0.99509
0.995085
0.99508
0.995075
0.99507
0.995065
0.99506
0.995055
0.99505
0.995045
0.99504
0.995035
0.99503
0.995026
0.995021
0.995016
0.995011
0.995006
0.995001
0.994996
0.994991
0.994986
0.994981
0.994976
0.994971
0.994966
0.994961
0.994956
0.994951
0.994946
0.994941
0.995212
0.995206
0.995201
0.995195
0.99519
0.995185
0.99518
0.995175
0.99517
0.995165
0.995159
0.995154
0.995149
0.995144
0.995139
0.995134
0.995129
0.995123
0.995118
0.995113
0.995108
0.995103
0.995098
0.995093
0.995087
0.995082
0.995077
0.995072
0.995067
0.995062
0.995057
0.995052
0.995046
0.995041
0.995036
0.995031
0.995026
0.995021
0.995016
0.99501
0.995005
0.995
0.994995
0.99499
0.994985
0.99498
0.994974
0.994969
0.994964
0.994959
0.994954
0.994949
0.994944
0.994938
0.994933
0.994928
0.994923
0.994918
0.994913
0.994908
0.994902
0.994897
0.994892
0.994887
0.994882
0.994877
0.994872
0.994866
0.994861
0.994856
0.994851
0.994846
0.994841
0.994836
0.99483
0.994825
0.99482
0.994815
0.99481
0.994805
0.9948
0.994794
0.994789
0.994784
0.994779
0.994774
0.994769
0.994764
0.994759
0.994753
0.994748
0.994742
0.995031
0.995025
0.995019
0.995014
0.995009
0.995003
0.994998
0.994993
0.994987
0.994982
0.994977
0.994971
0.994966
0.994961
0.994955
0.99495
0.994945
0.994939
0.994934
0.994929
0.994923
0.994918
0.994913
0.994907
0.994902
0.994897
0.994891
0.994886
0.994881
0.994875
0.99487
0.994865
0.994859
0.994854
0.994849
0.994843
0.994838
0.994833
0.994827
0.994822
0.994817
0.994811
0.994806
0.994801
0.994795
0.99479
0.994785
0.994779
0.994774
0.994769
0.994763
0.994758
0.994753
0.994747
0.994742
0.994737
0.994731
0.994726
0.994721
0.994715
0.99471
0.994705
0.994699
0.994694
0.994689
0.994683
0.994678
0.994673
0.994667
0.994662
0.994657
0.994651
0.994646
0.994641
0.994635
0.99463
0.994625
0.994619
0.994614
0.994609
0.994603
0.994598
0.994593
0.994587
0.994582
0.994577
0.994571
0.994566
0.994561
0.994555
0.99455
0.994544
0.99485
0.994844
0.994838
0.994833
0.994827
0.994822
0.994816
0.994811
0.994805
0.9948
0.994794
0.994789
0.994783
0.994778
0.994772
0.994766
0.994761
0.994755
0.99475
0.994744
0.994739
0.994733
0.994728
0.994722
0.994717
0.994711
0.994706
0.9947
0.994695
0.994689
0.994684
0.994678
0.994673
0.994667
0.994661
0.994656
0.99465
0.994645
0.994639
0.994634
0.994628
0.994623
0.994617
0.994612
0.994606
0.994601
0.994595
0.99459
0.994584
0.994579
0.994573
0.994567
0.994562
0.994556
0.994551
0.994545
0.99454
0.994534
0.994529
0.994523
0.994518
0.994512
0.994507
0.994501
0.994496
0.99449
0.994485
0.994479
0.994473
0.994468
0.994462
0.994457
0.994451
0.994446
0.99444
0.994435
0.994429
0.994424
0.994418
0.994413
0.994407
0.994402
0.994396
0.994391
0.994385
0.99438
0.994374
0.994368
0.994363
0.994357
0.994351
0.994346
0.99467
0.994663
0.994657
0.994651
0.994646
0.99464
0.994634
0.994629
0.994623
0.994617
0.994611
0.994606
0.9946
0.994594
0.994589
0.994583
0.994577
0.994571
0.994566
0.99456
0.994554
0.994549
0.994543
0.994537
0.994531
0.994526
0.99452
0.994514
0.994508
0.994503
0.994497
0.994491
0.994486
0.99448
0.994474
0.994468
0.994463
0.994457
0.994451
0.994446
0.99444
0.994434
0.994428
0.994423
0.994417
0.994411
0.994405
0.9944
0.994394
0.994388
0.994383
0.994377
0.994371
0.994365
0.99436
0.994354
0.994348
0.994343
0.994337
0.994331
0.994325
0.99432
0.994314
0.994308
0.994302
0.994297
0.994291
0.994285
0.99428
0.994274
0.994268
0.994262
0.994257
0.994251
0.994245
0.99424
0.994234
0.994228
0.994222
0.994217
0.994211
0.994205
0.994199
0.994194
0.994188
0.994182
0.994177
0.994171
0.994165
0.994159
0.994153
0.994147
0.994489
0.994483
0.994476
0.99447
0.994464
0.994458
0.994452
0.994447
0.994441
0.994435
0.994429
0.994423
0.994417
0.994411
0.994405
0.994399
0.994393
0.994387
0.994381
0.994376
0.99437
0.994364
0.994358
0.994352
0.994346
0.99434
0.994334
0.994328
0.994322
0.994316
0.99431
0.994305
0.994299
0.994293
0.994287
0.994281
0.994275
0.994269
0.994263
0.994257
0.994251
0.994245
0.994239
0.994234
0.994228
0.994222
0.994216
0.99421
0.994204
0.994198
0.994192
0.994186
0.99418
0.994174
0.994168
0.994163
0.994157
0.994151
0.994145
0.994139
0.994133
0.994127
0.994121
0.994115
0.994109
0.994103
0.994097
0.994092
0.994086
0.99408
0.994074
0.994068
0.994062
0.994056
0.99405
0.994044
0.994038
0.994032
0.994026
0.994021
0.994015
0.994009
0.994003
0.993997
0.993991
0.993985
0.993979
0.993973
0.993967
0.993961
0.993955
0.993949
0.994308
0.994302
0.994295
0.994289
0.994283
0.994277
0.994271
0.994264
0.994258
0.994252
0.994246
0.99424
0.994234
0.994228
0.994222
0.994216
0.994209
0.994203
0.994197
0.994191
0.994185
0.994179
0.994173
0.994167
0.994161
0.994154
0.994148
0.994142
0.994136
0.99413
0.994124
0.994118
0.994112
0.994106
0.994099
0.994093
0.994087
0.994081
0.994075
0.994069
0.994063
0.994057
0.994051
0.994045
0.994038
0.994032
0.994026
0.99402
0.994014
0.994008
0.994002
0.993996
0.99399
0.993983
0.993977
0.993971
0.993965
0.993959
0.993953
0.993947
0.993941
0.993935
0.993928
0.993922
0.993916
0.99391
0.993904
0.993898
0.993892
0.993886
0.99388
0.993873
0.993867
0.993861
0.993855
0.993849
0.993843
0.993837
0.993831
0.993825
0.993818
0.993812
0.993806
0.9938
0.993794
0.993788
0.993782
0.993776
0.99377
0.993763
0.993757
0.99375
0.994127
0.994121
0.994114
0.994108
0.994101
0.994095
0.994089
0.994082
0.994076
0.99407
0.994063
0.994057
0.994051
0.994045
0.994038
0.994032
0.994026
0.994019
0.994013
0.994007
0.994
0.993994
0.993988
0.993982
0.993975
0.993969
0.993963
0.993956
0.99395
0.993944
0.993937
0.993931
0.993925
0.993918
0.993912
0.993906
0.9939
0.993893
0.993887
0.993881
0.993874
0.993868
0.993862
0.993855
0.993849
0.993843
0.993837
0.99383
0.993824
0.993818
0.993811
0.993805
0.993799
0.993792
0.993786
0.99378
0.993773
0.993767
0.993761
0.993755
0.993748
0.993742
0.993736
0.993729
0.993723
0.993717
0.99371
0.993704
0.993698
0.993692
0.993685
0.993679
0.993673
0.993666
0.99366
0.993654
0.993647
0.993641
0.993635
0.993628
0.993622
0.993616
0.99361
0.993603
0.993597
0.993591
0.993584
0.993578
0.993572
0.993565
0.993559
0.993552
0.993947
0.99394
0.993933
0.993926
0.99392
0.993913
0.993907
0.9939
0.993894
0.993887
0.993881
0.993874
0.993868
0.993861
0.993855
0.993848
0.993842
0.993835
0.993829
0.993822
0.993816
0.993809
0.993803
0.993796
0.99379
0.993783
0.993777
0.99377
0.993764
0.993757
0.993751
0.993744
0.993738
0.993731
0.993725
0.993718
0.993712
0.993705
0.993699
0.993692
0.993686
0.993679
0.993673
0.993666
0.99366
0.993653
0.993647
0.99364
0.993634
0.993627
0.993621
0.993614
0.993608
0.993601
0.993595
0.993588
0.993582
0.993575
0.993569
0.993562
0.993556
0.993549
0.993543
0.993536
0.99353
0.993523
0.993517
0.99351
0.993504
0.993497
0.993491
0.993484
0.993478
0.993471
0.993465
0.993458
0.993452
0.993445
0.993439
0.993432
0.993426
0.993419
0.993413
0.993406
0.9934
0.993393
0.993387
0.99338
0.993374
0.993367
0.99336
0.993354
0.993766
0.993759
0.993752
0.993745
0.993738
0.993732
0.993725
0.993718
0.993712
0.993705
0.993698
0.993691
0.993685
0.993678
0.993671
0.993665
0.993658
0.993651
0.993645
0.993638
0.993631
0.993625
0.993618
0.993611
0.993604
0.993598
0.993591
0.993584
0.993578
0.993571
0.993564
0.993558
0.993551
0.993544
0.993538
0.993531
0.993524
0.993517
0.993511
0.993504
0.993497
0.993491
0.993484
0.993477
0.993471
0.993464
0.993457
0.993451
0.993444
0.993437
0.99343
0.993424
0.993417
0.99341
0.993404
0.993397
0.99339
0.993384
0.993377
0.99337
0.993364
0.993357
0.99335
0.993343
0.993337
0.99333
0.993323
0.993317
0.99331
0.993303
0.993297
0.99329
0.993283
0.993277
0.99327
0.993263
0.993256
0.99325
0.993243
0.993236
0.99323
0.993223
0.993216
0.99321
0.993203
0.993196
0.99319
0.993183
0.993176
0.993169
0.993162
0.993155
0.993585
0.993578
0.993571
0.993564
0.993557
0.99355
0.993543
0.993536
0.993529
0.993522
0.993515
0.993509
0.993502
0.993495
0.993488
0.993481
0.993474
0.993467
0.99346
0.993454
0.993447
0.99344
0.993433
0.993426
0.993419
0.993412
0.993405
0.993398
0.993392
0.993385
0.993378
0.993371
0.993364
0.993357
0.99335
0.993343
0.993336
0.99333
0.993323
0.993316
0.993309
0.993302
0.993295
0.993288
0.993281
0.993274
0.993268
0.993261
0.993254
0.993247
0.99324
0.993233
0.993226
0.993219
0.993213
0.993206
0.993199
0.993192
0.993185
0.993178
0.993171
0.993164
0.993157
0.993151
0.993144
0.993137
0.99313
0.993123
0.993116
0.993109
0.993102
0.993095
0.993089
0.993082
0.993075
0.993068
0.993061
0.993054
0.993047