/*--------------------------------*- C++ -*----------------------------------*\
  =========                 |
  \\      /  F ield         | OpenFOAM: The Open Source CFD Toolbox
   \\    /   O peration     | Website:  https://openfoam.org
    \\  /    A nd           | Version:  11
     \\/     M anipulation  |
\*---------------------------------------------------------------------------*/
FoamFile
{
    format      ascii;
    class       volScalarField;
    location    "5";
    object      C;
}
// * * * * * * * * * * * * * * * * * * * * * * * * * * * * * * * * * * * * * //

dimensions      [0 0 0 1 0 0 0];

internalField   nonuniform List<scalar> 
406587
(
1.7456e-311
9.49763e-312
1.36203e-311
6.99257e-312
9.42952e-312
5.29399e-312
2.73628e-312
1.8946e-312
1.05057e-312
1.57191e-312
-1.20707e-313
7.86428e-313
-3.55328e-313
-1.41822e-313
3.32897e-312
-2.11738e-313
2.22582e-312
-1.76535e-313
1.81495e-313
3.28779e-313
-6.28995e-313
-2.24664e-313
-4.48433e-313
-5.18515e-313
-1.08036e-312
-1.45707e-313
-7.45986e-313
-5.1223e-313
-1.23808e-312
-1.54996e-312
-2.22859e-312
-1.66283e-312
-2.82313e-312
-1.21446e-313
-2.29236e-312
1.13409e-312
-1.68311e-312
-4.05446e-313
4.40239e-313
-4.12018e-313
1.28008e-312
-2.24558e-313
5.84109e-313
5.74559e-313
-1.0618e-313
6.12018e-313
-5.09171e-315
5.81675e-313
8.0272e-314
7.40135e-313
-3.43684e-313
-4.91361e-314
2.63084e-313
-6.92763e-314
-4.68359e-313
-5.37521e-313
1.38734e-313
8.63949e-313
-3.43383e-313
1.66191e-313
-6.52336e-316
2.75255e-312
1.22032e-312
2.71036e-312
9.23167e-313
-5.19787e-313
-2.26702e-313
-1.09529e-312
7.27063e-313
3.61277e-312
1.16756e-312
2.93278e-312
-3.04315e-312
2.22394e-312
2.60126e-313
1.65972e-312
-6.53786e-313
4.34324e-312
4.97492e-313
1.33526e-312
1.62958e-312
-3.33517e-313
-1.96752e-312
-3.35198e-312
-2.57028e-312
-9.11658e-313
9.6584e-312
1.90595e-311
1.55413e-311
1.04184e-311
6.79211e-312
3.2104e-312
3.32454e-312
1.15086e-312
1.81281e-312
3.8124e-312
3.8656e-312
1.76993e-312
4.55797e-312
1.52649e-313
6.00057e-312
5.91921e-312
2.41611e-312
1.42653e-312
-3.21689e-313
-3.93961e-312
-1.81069e-312
-1.50404e-312
3.645e-313
-1.71316e-312
8.69755e-313
-4.62994e-313
-1.84335e-312
-3.03639e-312
-1.59544e-312
6.50153e-313
-3.4488e-312
3.45897e-313
-2.11628e-312
-1.87384e-312
-2.91688e-312
1.5612e-312
-1.29838e-312
-1.94386e-313
-1.43603e-312
3.98538e-313
-1.40293e-312
7.95542e-313
2.52116e-312
3.87747e-312
4.66128e-313
3.63533e-312
-9.12229e-313
3.02525e-312
1.44279e-312
6.76349e-313
-2.94624e-313
-1.96218e-312
-1.62525e-312
1.79647e-312
4.12919e-313
3.13533e-312
-2.24784e-313
-2.76832e-313
-5.83161e-312
-2.70644e-312
4.29899e-313
6.729e-313
2.39877e-312
6.37631e-313
-1.50183e-312
-1.42365e-312
2.60197e-312
1.49785e-312
2.32578e-312
4.06892e-312
-3.4318e-312
-1.05001e-312
-2.9168e-312
-2.31961e-312
6.73631e-313
3.34584e-312
-2.03821e-312
2.9432e-312
-4.73259e-312
-4.40197e-312
-6.68444e-312
-4.88825e-312
-4.69641e-312
-1.77191e-312
-7.80019e-312
2.25688e-312
7.04189e-312
2.94643e-312
3.61923e-312
2.95878e-312
3.05925e-312
-6.57059e-312
-2.46899e-312
-8.64525e-312
-5.54017e-312
-2.66841e-312
-3.5212e-312
-1.00966e-312
2.56899e-312
1.10248e-312
7.81461e-312
8.80933e-312
8.18203e-312
3.98695e-312
-1.43203e-312
-5.91343e-312
-3.8218e-312
-1.63548e-312
1.2681e-312
3.49122e-313
-8.68263e-313
-2.40268e-312
-4.77204e-312
-6.17436e-312
-2.20918e-312
2.62666e-313
-4.1516e-312
-6.71415e-313
-2.57662e-312
-3.77151e-312
-3.52516e-312
1.56491e-312
-9.40831e-313
1.47055e-312
-1.94989e-312
2.6019e-312
-2.76969e-312
2.07197e-312
1.45302e-312
4.05672e-312
9.4843e-313
3.34929e-312
1.79693e-312
2.64241e-312
3.67013e-312
2.78119e-313
5.21137e-313
-6.00594e-313
-2.03965e-312
1.46077e-312
3.06616e-312
4.64964e-312
4.28871e-312
8.48257e-313
-3.12938e-312
1.24582e-312
1.9245e-312
3.94139e-312
2.28368e-312
9.80537e-313
6.06688e-313
9.74176e-313
5.91363e-312
5.53808e-313
6.78569e-312
6.16394e-312
8.60047e-313
-2.1968e-312
3.16464e-313
4.45961e-313
-1.28471e-312
1.37166e-312
-6.09561e-312
-6.8161e-312
-2.38529e-312
-1.03622e-311
-8.2049e-312
-4.31493e-312
-6.30951e-312
-2.66893e-312
-5.43427e-312
6.45812e-312
3.20493e-312
1.03393e-311
9.48216e-312
5.36498e-312
7.59692e-313
-8.18034e-312
5.44057e-313
-1.19112e-311
-2.41321e-312
-1.26164e-312
-4.41635e-312
7.74455e-313
1.69833e-312
1.91035e-312
1.02046e-311
8.75263e-312
7.34634e-312
4.84142e-312
-2.11059e-312
-4.7401e-312
-2.53795e-312
-3.58846e-313
2.21721e-312
1.20907e-312
-1.4869e-312
-3.65848e-313
-4.04739e-312
-4.36217e-312
-1.30949e-312
-7.62911e-314
-2.29805e-312
1.4924e-312
-2.48907e-312
-2.80783e-312
-1.78506e-312
-3.87855e-313
-1.2152e-312
-4.10208e-313
-2.11635e-312
2.46143e-312
-1.81425e-312
9.55644e-313
1.98471e-312
3.74813e-312
2.89214e-312
7.78007e-313
5.52204e-313
3.68603e-313
1.04185e-312
-3.50588e-313
-9.64572e-313
-1.09971e-312
-4.52709e-312
-1.87456e-312
2.34099e-312
6.39952e-312
7.82228e-312
2.22923e-312
1.04897e-312
3.55239e-312
1.88509e-312
4.509e-312
-1.07845e-312
1.0702e-312
-1.70995e-312
-1.1864e-312
2.3191e-312
-4.90411e-312
4.77677e-312
4.48503e-312
3.3127e-312
1.37558e-312
4.15422e-312
4.99301e-312
4.33179e-312
3.35508e-312
-4.13975e-312
-5.87616e-312
-3.75553e-312
-2.595e-312
-2.43169e-312
-3.20046e-312
3.72576e-312
1.0608e-311
2.08118e-311
3.64194e-311
5.97263e-312
2.29079e-312
7.9455e-312
7.47246e-312
-5.41418e-312
-3.0188e-312
-5.56387e-312
-8.23296e-312
-6.44793e-312
-6.93994e-312
-7.2735e-312
-2.80986e-312
-4.35826e-313
3.95207e-312
1.03921e-311
6.84819e-312
7.77292e-312
5.85547e-312
4.10982e-313
-4.17167e-312
-3.04961e-312
-2.12859e-312
5.95028e-313
1.67212e-312
-2.32691e-312
1.67426e-312
-4.55241e-312
-3.42456e-312
-2.89321e-312
1.34189e-312
1.02627e-312
2.60972e-312
-6.23986e-313
-6.10751e-313
-8.34319e-313
3.44904e-313
-4.19678e-313
-1.86895e-312
-2.12421e-312
-1.03658e-312
-1.3083e-312
3.05525e-313
1.93699e-312
1.66014e-312
5.24629e-312
-1.01479e-312
1.36871e-312
-5.74188e-313
-7.21658e-313
-2.17975e-313
-1.85503e-312
-4.93076e-312
-6.41342e-312
-2.3438e-312
5.3733e-313
7.64901e-312
6.37421e-312
1.51962e-312
-6.78196e-313
3.39593e-312
3.25598e-312
6.15646e-312
1.78978e-312
2.71486e-312
3.70304e-313
-2.40291e-312
1.88696e-312
-7.39576e-312
2.13625e-312
4.10825e-312
4.40747e-313
-1.07945e-312
-4.19765e-312
2.67296e-312
4.01188e-312
2.11866e-312
2.01031e-312
6.41078e-313
2.10122e-312
-4.39842e-312
3.93687e-312
9.3079e-312
1.6107e-311
2.2776e-311
3.19579e-311
4.10721e-311
-2.32714e-312
1.91135e-312
2.58357e-312
1.43816e-312
-6.73853e-313
-6.47927e-312
-8.23906e-312
-5.7995e-312
-5.67439e-312
-5.21861e-312
-2.02589e-312
8.40956e-313
3.5002e-312
4.30284e-312
7.26068e-312
4.53638e-312
4.75583e-312
7.94094e-312
-1.18322e-313
-1.42506e-312
-1.58449e-312
-1.2602e-312
-2.87877e-312
-1.27797e-312
-4.05907e-312
3.14851e-313
-2.20462e-312
-9.79657e-313
-3.48775e-312
1.80156e-312
1.78709e-312
2.06968e-312
-1.04179e-312
-1.84824e-312
5.92503e-314
1.48398e-312
1.06531e-312
-2.36421e-312
-2.04003e-312
-2.19085e-312
-1.81889e-312
6.58624e-313
4.67693e-312
3.16088e-312
7.90862e-312
-5.00246e-313
2.62311e-312
-8.07135e-313
-3.99872e-313
-5.55558e-313
-2.97624e-312
-4.66451e-312
-7.51041e-312
-2.15914e-312
1.16774e-312
7.6519e-312
5.1722e-312
-5.65248e-313
-5.70827e-313
7.43142e-313
1.01108e-312
2.72085e-312
2.77719e-312
1.4655e-312
8.59144e-314
-2.28546e-313
2.2677e-312
-2.44252e-312
1.78523e-312
4.91646e-312
4.21357e-313
-6.84877e-313
-3.44943e-312
3.36751e-313
2.47921e-313
2.09579e-312
-1.4168e-312
-4.66413e-312
3.83921e-313
-6.74195e-312
2.6132e-312
3.4235e-312
9.445e-312
1.12233e-311
1.80108e-311
1.46006e-311
-5.99776e-312
-3.80813e-312
-4.45185e-312
-3.47248e-312
-4.27476e-312
-5.80634e-312
-1.69911e-311
-1.47269e-311
-1.31734e-311
-1.24517e-311
-4.5196e-312
-4.08828e-312
2.99595e-312
3.65518e-312
7.4006e-312
2.21953e-312
1.82142e-312
7.35112e-312
-2.83085e-312
-2.98357e-312
-2.33531e-312
-3.65803e-312
-3.36299e-312
-2.86258e-312
-5.61697e-312
-1.5033e-312
-3.72433e-312
-1.98385e-312
-1.83126e-312
2.3421e-312
1.92258e-312
1.46859e-312
-5.86491e-314
-1.81641e-312
-3.20163e-313
2.79941e-312
5.92018e-313
-3.08947e-312
-1.98037e-312
-1.55174e-312
-3.58076e-313
-1.74155e-312
3.89907e-312
4.44896e-312
5.22545e-312
1.27587e-312
2.31638e-312
1.27921e-312
-4.62847e-313
1.18124e-313
-6.04916e-312
-7.01846e-312
-6.37638e-312
-3.36054e-312
1.20083e-312
5.28697e-312
6.42616e-312
3.47356e-313
1.99724e-312
6.60884e-313
1.17337e-312
2.81704e-312
2.59618e-312
1.793e-312
-2.25452e-312
8.24149e-313
1.89312e-312
-2.22591e-312
-1.70219e-312
2.9877e-312
-2.90772e-313
9.57669e-313
-1.97273e-312
-1.85803e-313
1.80083e-312
2.23893e-312
-3.22999e-312
-5.67817e-312
2.06142e-312
1.76531e-312
6.11022e-312
8.68173e-313
4.66041e-312
1.87944e-312
-2.01829e-312
-5.72245e-312
1.65091e-312
4.84651e-312
8.13668e-312
1.38572e-311
1.13585e-311
2.34922e-312
-8.80535e-312
-1.78059e-311
-1.36124e-311
-1.08892e-311
-1.05362e-311
-9.60022e-312
1.50387e-314
3.54124e-312
8.97441e-312
4.83884e-312
2.64959e-312
4.2266e-312
-2.19287e-312
-2.08704e-312
-2.88845e-312
-5.95735e-312
-3.144e-312
-4.96137e-312
-5.41633e-312
-2.10603e-312
-2.31884e-312
1.31095e-312
-2.06907e-312
5.91326e-312
9.7411e-313
4.17754e-312
-4.85923e-315
-4.26835e-313
-1.3804e-312
3.46421e-312
-7.85527e-313
-1.03074e-312
-2.94227e-312
3.74577e-315
1.15786e-312
-2.12085e-312
2.57957e-312
7.6909e-312
6.98697e-312
1.853e-312
3.09812e-312
-2.93292e-312
-1.49065e-312
5.19696e-313
-3.12605e-312
-6.68796e-312
-7.72582e-312
-4.35463e-312
6.61558e-313
1.41809e-312
4.91414e-312
1.90902e-312
-1.59593e-313
1.94651e-312
3.21252e-313
4.10842e-312
2.42044e-312
-5.43086e-313
-2.41271e-312
1.30626e-312
1.65543e-312
-1.34939e-312
2.77829e-312
4.24347e-312
-1.75527e-312
-1.15059e-313
-1.42289e-312
-2.40299e-312
3.0378e-312
1.05336e-312
-2.47556e-312
-3.43156e-313
2.91246e-312
2.56783e-312
5.25333e-312
1.75434e-312
-6.12508e-314
-1.20353e-311
-1.59354e-311
-2.57802e-311
-8.78205e-312
-8.88106e-312
-2.67946e-312
7.98516e-313
1.48948e-312
5.2165e-312
-4.973e-312
-1.49392e-311
-1.23773e-311
-9.08715e-312
-5.7219e-312
-6.86344e-312
4.82901e-312
4.09882e-312
1.10849e-311
9.62365e-312
4.20998e-312
5.85619e-312
5.40665e-313
-4.9569e-312
-4.56456e-312
-6.18517e-312
-4.82893e-312
-3.58842e-312
-2.71076e-312
-8.33824e-313
1.03203e-312
3.45018e-312
-1.98709e-312
4.83372e-312
1.11824e-312
4.25335e-312
2.6431e-312
-1.32849e-312
3.30435e-314
1.94893e-312
6.11602e-313
-6.94117e-313
-2.83257e-312
-3.72187e-313
3.48786e-312
-2.39669e-313
3.88334e-312
6.84132e-312
7.07168e-312
4.29995e-312
3.68832e-312
-2.09283e-312
-1.25298e-312
-6.1938e-313
-2.30581e-312
-6.11016e-312
-4.66057e-312
-3.83895e-312
4.68878e-313
-1.40406e-313
3.60062e-312
9.78337e-313
-2.1607e-312
6.21627e-313
1.80524e-312
3.38312e-313
-1.14184e-313
-2.49545e-312
-1.00469e-312
3.52247e-313
-1.64591e-312
-3.46248e-312
2.16188e-312
5.7615e-312
-1.84879e-312
-6.04159e-312
-4.66819e-312
-1.4854e-312
2.59122e-312
-1.70295e-313
2.02616e-312
7.64356e-313
4.10003e-312
4.01781e-312
1.2223e-312
-5.32914e-312
-1.28799e-311
-1.15332e-311
-2.25301e-311
-2.11335e-311
8.55094e-312
-6.55175e-313
9.26796e-312
2.9639e-312
-3.65951e-312
4.53932e-312
-6.25963e-312
-1.1503e-311
-9.10118e-312
-5.66786e-312
-4.79774e-312
-7.42192e-312
-1.1489e-312
3.52098e-312
1.01275e-311
8.49203e-312
1.03382e-311
6.51784e-312
6.56301e-312
-1.495e-312
-1.57818e-312
-2.79479e-312
-3.14117e-312
-5.05894e-312
-1.14918e-312
1.46986e-312
5.48053e-312
5.75097e-312
-2.19579e-313
6.56984e-312
-9.58156e-313
2.10889e-312
-6.89747e-313
-9.13475e-313
-1.12022e-313
1.48026e-312
-8.8434e-313
-1.24474e-312
9.04652e-313
-2.57946e-312
5.2352e-313
-4.95753e-313
3.77707e-312
5.19512e-312
5.70088e-312
4.06311e-312
3.41942e-312
-1.00114e-312
-2.17444e-312
1.25409e-313
-2.12389e-312
-4.16095e-312
-4.92204e-312
-3.8606e-312
-1.16183e-312
2.59811e-312
2.26215e-312
7.44092e-313
-2.19026e-312
3.27688e-312
1.44564e-312
2.39888e-313
1.01014e-312
2.18001e-312
-1.12872e-313
-1.01652e-312
-2.07593e-312
-2.03982e-312
-8.91015e-313
4.58986e-312
2.25562e-313
-1.14138e-313
-1.00991e-312
-7.03914e-313
6.53932e-312
7.2531e-312
3.80949e-312
1.13624e-312
3.41842e-312
1.8533e-312
1.40632e-312
-3.34469e-312
-5.01652e-312
-5.69892e-312
-1.16114e-311
-1.5965e-311
1.22993e-311
7.55688e-313
3.46779e-314
2.69127e-312
-1.0997e-312
6.44704e-312
-1.45548e-312
-2.91034e-312
-6.74052e-312
-6.31469e-312
-4.21323e-312
-5.94166e-312
-2.05017e-312
5.50262e-312
7.3928e-312
4.16278e-312
5.86782e-312
6.42404e-312
7.97853e-312
2.89555e-312
9.82963e-313
-1.02163e-312
-3.77515e-312
-1.59551e-312
-2.52206e-313
5.44473e-312
5.15082e-312
6.34779e-312
1.3447e-312
6.54079e-312
-7.46176e-313
2.85434e-312
-6.85462e-314
-4.65244e-313
1.07618e-312
4.30483e-312
4.79251e-313
4.61524e-314
-1.81589e-312
-2.94159e-312
-2.50292e-312
-1.65067e-312
2.53676e-312
3.86565e-312
6.92829e-312
2.62564e-312
3.56327e-312
-1.14469e-312
-2.04694e-312
3.54519e-313
-3.7108e-312
-1.35673e-312
-3.47257e-312
-9.1967e-313
-2.96335e-312
3.28328e-312
2.85658e-312
1.73492e-312
-2.3344e-312
3.50509e-312
1.52047e-312
1.58248e-312
4.39889e-314
-1.67356e-312
-2.27786e-313
9.98326e-313
-3.04144e-313
3.70366e-313
-8.56304e-313
1.80913e-312
-2.43506e-312
5.54199e-313
-2.73096e-312
-4.38608e-312
4.74598e-312
7.02434e-312
6.13277e-312
7.96631e-313
5.56872e-312
5.93745e-312
9.22645e-312
4.33192e-312
1.09805e-311
9.67007e-312
4.28515e-312
-9.63846e-314
-1.58362e-311
-1.35933e-311
-1.51537e-312
7.8161e-313
9.26413e-312
9.0807e-312
2.67459e-312
9.14119e-313
-9.51693e-312
-1.0424e-311
-6.47132e-312
-5.95027e-312
3.14547e-313
6.20678e-312
5.04434e-312
4.01629e-312
6.56783e-312
1.0297e-311
1.16748e-311
5.97775e-312
1.06891e-312
-1.53611e-313
-2.52533e-312
1.69709e-312
2.95607e-312
5.51492e-312
4.64939e-312
1.60101e-312
-3.52813e-312
2.18132e-312
-4.56423e-312
1.89522e-312
1.71516e-312
-1.57026e-312
-4.12524e-313
2.88003e-312
1.28023e-312
-3.36783e-312
-4.28069e-312
-2.80939e-312
-1.21677e-312
-1.72893e-312
2.0488e-312
2.56476e-312
5.662e-312
4.02683e-312
3.76216e-312
-1.6148e-312
8.0584e-313
4.88739e-314
-3.47014e-312
-3.76834e-312
-4.05775e-312
-1.88137e-312
-1.82069e-312
9.8624e-313
1.49783e-312
-1.31428e-312
-1.90467e-312
2.89804e-312
3.95074e-312
2.66573e-312
7.06335e-313
-1.82545e-312
-2.33928e-312
3.91111e-313
-6.44881e-313
-1.39603e-312
7.35922e-314
3.44386e-312
2.11312e-312
8.16996e-313
-2.38364e-312
-1.07723e-312
-1.20439e-313
7.62733e-312
1.04902e-311
8.26629e-312
1.17236e-311
1.06974e-311
8.29402e-312
5.4222e-312
1.90677e-312
7.32455e-313
-2.94376e-312
-1.23021e-311
5.44196e-312
8.32186e-313
4.16404e-312
2.81917e-312
3.76882e-312
4.93678e-312
2.32315e-312
-3.87675e-312
-8.83834e-312
-1.00692e-311
-3.11119e-312
-6.45481e-312
1.17862e-312
5.73613e-312
8.58304e-312
1.72853e-312
8.00171e-312
8.77446e-312
1.07172e-311
7.4627e-312
2.14719e-312
1.48784e-312
-1.12533e-312
2.08804e-312
7.38136e-313
5.17162e-312
4.3237e-312
4.52455e-312
-1.87472e-313
1.10902e-312
-4.61912e-312
4.37791e-313
1.66948e-312
-6.4797e-313
6.2087e-313
2.26256e-312
1.65893e-312
1.46245e-312
-2.80118e-312
-7.75248e-313
-2.91152e-313
-2.33033e-312
3.53293e-312
4.4881e-312
8.13473e-312
5.04097e-312
4.17824e-312
-2.10602e-312
-1.16671e-313
4.47523e-313
-3.08356e-312
-2.34861e-312
-3.32926e-312
-5.03818e-313
-2.42181e-312
-8.32271e-313
4.7841e-313
2.62968e-313
1.77816e-312
4.34916e-312
4.68139e-312
-5.19266e-313
1.62293e-312
-3.8033e-313
-2.21907e-312
-2.67405e-314
-1.35458e-312
-1.01789e-312
6.1417e-313
1.99307e-312
1.51738e-312
-7.20774e-313
-3.42629e-312
-1.1009e-313
-3.3489e-313
6.15618e-312
1.31645e-311
1.83722e-311
1.87546e-311
1.56299e-311
1.26516e-311
3.42457e-312
2.85852e-312
7.13595e-313
-4.27742e-312
5.78741e-312
2.22835e-311
1.61803e-311
3.40721e-312
9.36705e-312
1.08994e-311
1.02347e-311
9.26488e-312
-6.58265e-312
-8.89899e-312
-4.70533e-312
-1.3989e-312
-7.27918e-313
4.88464e-312
1.35877e-311
9.47031e-312
4.71914e-312
6.46311e-312
7.56353e-312
8.75291e-312
4.91266e-312
1.51924e-312
1.24068e-312
6.11158e-313
4.71039e-312
3.09435e-312
4.16176e-312
3.69255e-312
4.29249e-312
9.37302e-314
6.12568e-313
-1.37107e-312
3.04041e-312
3.23909e-312
-6.02494e-313
2.24252e-312
2.15895e-312
2.80518e-312
8.46572e-313
-1.26937e-312
-9.53346e-314
-8.51031e-313
-2.56319e-313
2.10684e-312
3.42664e-312
8.30572e-312
1.57393e-312
2.14236e-312
-1.60364e-312
-4.04612e-313
3.20466e-314
-5.49934e-312
-2.4074e-312
-5.16384e-312
-1.86101e-312
-4.06331e-312
-4.06809e-312
-1.39307e-312
-1.77195e-312
1.70134e-312
3.45714e-312
6.52764e-312
1.58415e-312
-1.44194e-312
1.60712e-312
-5.6642e-313
1.58187e-312
5.05534e-313
3.08204e-312
5.94101e-312
2.87707e-312
-1.2981e-312
-2.98994e-312
-7.62328e-312
-2.94817e-312
-1.04359e-312
6.20656e-312
1.42242e-311
1.57679e-311
1.73342e-311
1.59447e-311
1.07927e-311
5.49932e-312
1.22712e-311
1.01263e-311
1.06765e-311
6.58179e-312
1.5808e-311
1.09388e-311
5.99909e-312
8.66293e-312
1.81972e-311
1.42133e-311
9.04511e-312
2.28106e-313
-6.59053e-312
1.30301e-312
5.78422e-312
1.1695e-312
7.8157e-312
1.13853e-311
8.1644e-312
4.30048e-312
2.99402e-312
6.68274e-312
9.78273e-312
4.84131e-312
3.64351e-312
-6.17324e-313
-6.22018e-313
2.10768e-312
1.70135e-312
2.21149e-312
4.63419e-313
1.24242e-312
2.34252e-313
8.07515e-313
1.29655e-312
3.80311e-312
5.44434e-312
1.57537e-312
2.36253e-312
2.88411e-312
4.93444e-312
-2.11695e-312
-1.26546e-312
-9.9688e-313
1.1454e-312
2.73141e-312
1.8037e-312
5.19413e-312
8.28455e-312
6.04872e-313
1.17069e-312
-3.42323e-312
-1.30988e-312
-2.40868e-314
-5.23461e-312
-1.91175e-312
-5.31921e-312
-1.28218e-312
-4.70764e-312
-4.05263e-312
-6.71559e-313
-2.01903e-312
2.14358e-312
3.97628e-312
6.98023e-312
3.39698e-312
3.01073e-312
1.2326e-312
2.82411e-312
4.93575e-312
1.89341e-312
3.27306e-312
6.28596e-312
5.7811e-312
-6.3374e-312
-3.99541e-312
-9.00402e-312
-5.06401e-312
-2.84717e-312
3.29255e-312
6.96394e-312
1.20542e-311
1.45519e-311
1.15391e-311
8.9554e-312
6.82744e-312
1.06178e-311
1.24451e-311
1.29861e-311
1.9028e-311
-5.11891e-312
1.23262e-311
7.74007e-312
1.20136e-311
1.26435e-311
4.94427e-312
8.40807e-312
-2.9413e-312
-7.89842e-312
-3.19365e-312
3.64274e-312
1.6952e-312
4.41754e-312
1.06607e-311
1.17543e-311
1.16697e-312
-1.80607e-314
2.66632e-312
7.63183e-312
5.6317e-312
5.53083e-312
4.36168e-313
-2.4411e-312
1.50786e-312
1.0928e-312
1.54508e-312
2.65848e-312
1.47735e-312
8.64796e-313
4.09809e-312
3.44684e-312
2.71719e-312
4.34793e-312
4.56603e-313
6.8493e-313
2.0106e-312
2.70571e-312
-1.24817e-312
-1.76852e-312
-4.58748e-312
-1.57093e-312
7.14362e-313
1.97768e-312
5.49615e-312
6.76765e-312
1.7247e-312
1.27489e-312
-2.96798e-312
-9.95466e-313
-2.62805e-312
-7.08243e-312
-3.52661e-312
-5.45962e-312
2.52002e-313
-2.12435e-312
-1.55402e-312
-1.96632e-312
-1.57819e-312
2.16219e-312
7.54046e-312
7.6991e-312
4.10441e-312
4.00086e-312
2.94311e-312
5.36009e-312
5.16822e-312
1.61505e-312
2.95242e-312
2.51065e-312
1.07146e-312
-8.82943e-312
-1.00229e-311
-1.0409e-311
-8.18498e-312
-3.25147e-312
2.43913e-312
1.1787e-311
1.53877e-311
1.94381e-311
1.04884e-311
5.17133e-312
3.93713e-312
1.0428e-311
1.31614e-311
1.14376e-311
5.42849e-312
-4.44364e-312
4.31998e-312
6.66856e-312
1.2521e-311
1.17699e-311
2.82608e-312
6.98676e-312
-6.5492e-313
-7.01204e-312
-6.37252e-312
2.80957e-313
6.94444e-312
4.11508e-312
1.18897e-311
1.0434e-311
5.21566e-313
2.67229e-312
3.30513e-312
1.00761e-311
8.47372e-312
3.7689e-312
1.37622e-312
-2.03257e-312
-1.24388e-312
1.12327e-312
1.23365e-312
5.87253e-312
2.80786e-312
1.27587e-312
5.08653e-312
1.54923e-312
2.84765e-312
3.06881e-312
1.59873e-312
-8.52187e-313
2.96808e-312
2.18343e-312
-4.74841e-313
-2.04784e-312
-5.21795e-312
-5.26662e-312
1.8557e-312
-2.57432e-313
7.27199e-312
8.52084e-312
2.46191e-312
1.03173e-312
-8.37884e-313
-1.02159e-312
8.21339e-313
-5.92761e-312
-3.88353e-312
-5.80711e-312
-5.44258e-313
-1.35587e-312
-4.00622e-314
-1.75843e-312
-1.80103e-312
6.7758e-313
8.01538e-312
9.00952e-312
2.68958e-312
4.13424e-313
1.63177e-312
7.37945e-312
8.22824e-312
5.08619e-312
6.12674e-312
3.35969e-312
6.15162e-313
-1.06565e-311
-9.52735e-312
-1.03056e-311
-6.0061e-312
-3.27705e-313
6.07436e-312
9.29395e-312
1.70892e-311
1.5166e-311
9.78894e-312
3.33763e-312
-2.28112e-312
5.70466e-312
1.13977e-311
8.79216e-312
6.76888e-312
-1.60237e-311
-4.88008e-312
-1.94044e-313
7.31598e-312
5.71187e-312
-2.68668e-313
7.62046e-312
2.82524e-313
2.83213e-312
3.23371e-312
-2.77309e-313
1.0194e-311
8.22557e-312
1.29297e-311
1.43149e-311
5.01837e-312
5.57452e-312
6.61459e-312
1.34543e-311
8.81963e-312
4.24965e-312
3.4621e-312
-5.53954e-313
-2.07815e-312
4.47313e-312
4.7062e-312
6.41249e-312
4.02293e-312
2.20701e-312
4.7319e-312
1.47915e-312
4.6928e-314
2.21009e-312
1.18178e-312
-4.27527e-313
4.07755e-312
5.90463e-313
-1.85742e-312
-2.00768e-312
-3.5172e-312
-6.01295e-312
3.12116e-312
-1.05275e-313
4.2305e-312
8.75492e-312
1.37431e-312
2.66902e-312
-6.15812e-313
2.53104e-312
2.25798e-312
-2.8042e-312
-5.15336e-312
-5.48728e-312
-3.75422e-312
-5.16629e-312
-1.23756e-312
-9.69658e-313
-2.43577e-312
-4.91099e-313
5.03285e-312
6.5591e-312
5.4388e-312
1.17778e-312
3.71825e-312
4.14067e-312
3.85498e-312
6.97816e-312
2.13806e-312
5.0318e-312
-5.13079e-312
-1.28327e-311
-1.12635e-311
-1.04479e-311
-6.77636e-312
1.83019e-313
4.31807e-312
3.45106e-312
9.17446e-312
2.24048e-312
-1.49743e-312
-3.16658e-312
-3.38544e-312
2.72964e-312
1.29911e-311
1.52617e-311
1.74775e-311
-9.09304e-312
-5.38233e-312
-3.43008e-312
4.57789e-312
5.41008e-312
5.03413e-312
4.42669e-312
-2.53002e-312
5.72558e-312
3.73937e-312
7.34011e-312
9.76934e-312
1.1783e-311
1.68946e-311
1.40201e-311
7.25687e-312
4.28795e-312
7.48741e-312
9.88679e-312
7.43297e-312
7.64456e-312
1.41181e-312
9.24006e-313
1.31168e-312
5.14761e-312
7.79776e-312
6.27605e-312
5.76475e-312
4.39531e-312
5.0882e-312
4.31624e-312
-1.43073e-312
3.07107e-312
-6.09961e-313
1.64088e-312
2.15076e-312
-2.81155e-313
-6.52858e-313
-3.4475e-312
-3.11706e-312
-5.63229e-312
1.64672e-312
-1.98173e-312
1.84198e-312
6.20557e-312
2.82137e-312
4.60973e-312
2.45175e-312
5.20882e-312
2.69586e-312
-5.42816e-312
-4.77901e-312
-6.39355e-312
-4.69812e-312
-5.14119e-312
-1.23212e-312
-2.50675e-312
-1.85975e-312
-1.12504e-312
2.92738e-314
5.50864e-312
2.99067e-312
2.1773e-312
3.04529e-312
2.58982e-312
5.77093e-312
6.4277e-312
4.36129e-312
5.70303e-312
-3.74787e-312
-1.43097e-311
-1.11882e-311
-1.33544e-311
-5.6018e-312
-5.29817e-312
2.40198e-312
8.41223e-313
2.52885e-312
-8.11216e-313
-2.8582e-312
-4.97636e-312
-2.69708e-312
3.76913e-313
5.51984e-312
3.0393e-312
-6.4919e-312
2.91792e-312
-6.21795e-312
-1.38694e-311
-4.332e-312
2.44315e-312
5.07248e-312
-2.5558e-312
1.25577e-312
3.36765e-312
-2.42004e-313
2.43628e-312
5.08712e-312
1.16213e-311
1.62162e-311
1.76961e-311
6.37161e-312
5.01375e-312
5.42409e-312
9.74345e-312
1.17251e-311
7.87902e-312
2.88929e-312
1.81826e-313
3.58027e-312
3.25156e-312
4.7574e-312
3.90621e-312
4.82475e-312
1.02488e-312
4.05764e-312
5.41807e-312
-1.19619e-312
3.65013e-312
1.49363e-312
2.56452e-312
1.60106e-312
-9.12326e-313
1.33444e-312
-3.93614e-312
-1.29548e-312
-1.55488e-312
3.35643e-312
-1.66031e-312
4.65231e-312
4.34603e-312
3.48402e-312
2.60115e-312
4.31241e-312
4.83408e-312
4.19623e-312
-2.85777e-312
-3.23374e-312
-8.32119e-312
-5.76463e-312
-5.28634e-312
-3.0686e-312
-3.39392e-312
-1.72066e-312
6.61069e-314
-2.2514e-313
6.78433e-313
3.38139e-312
2.62899e-312
5.93374e-312
4.0462e-313
5.57584e-312
3.48906e-312
5.88756e-312
5.43915e-312
-1.64768e-312
-1.2944e-311
-1.29029e-311
-1.54047e-311
-6.16869e-312
-7.02001e-312
-3.70738e-312
-6.78743e-312
-1.83489e-312
-3.61027e-312
-1.01368e-311
-1.16672e-311
-1.36016e-311
-2.14993e-311
-2.60651e-311
-3.2903e-311
-3.94865e-311
-1.12106e-311
-1.12009e-311
-1.10475e-311
-7.34383e-312
3.01513e-312
1.01606e-312
6.08425e-313
3.39764e-313
7.84836e-312
1.46169e-312
2.61659e-312
7.59433e-312
7.97859e-312
1.91083e-311
1.8555e-311
1.13038e-311
7.84496e-312
2.63184e-312
5.10286e-312
9.04243e-312
1.01896e-311
5.06675e-312
3.10879e-312
7.17476e-312
2.00231e-312
2.87842e-312
3.91902e-312
6.13081e-313
-4.58294e-314
1.75255e-312
6.49103e-312
2.96414e-313
6.84695e-312
3.22091e-312
2.61248e-312
1.70615e-312
-1.94799e-312
-8.98673e-314
-1.42028e-312
5.68444e-313
3.42973e-313
4.80074e-312
1.09004e-312
5.34701e-312
4.75708e-312
2.70568e-313
1.82583e-312
5.37477e-312
3.98453e-312
6.72555e-312
-1.35808e-312
-2.92679e-312
-6.46633e-312
-4.57788e-312
-6.39176e-312
-4.54519e-312
-2.58414e-312
-4.37139e-313
5.12741e-314
2.45514e-314
8.00753e-313
4.13227e-312
7.30656e-312
1.05111e-311
3.67447e-312
5.36539e-312
1.9386e-312
-2.64053e-315
3.15087e-312
-2.31887e-312
-1.10782e-311
-1.13386e-311
-1.81218e-311
-1.25809e-311
-4.78672e-312
-2.60633e-312
-9.46259e-312
-6.81944e-312
-5.89475e-312
-1.54038e-311
-2.07239e-311
-2.94695e-311
-3.55146e-311
-3.96347e-311
-3.86408e-311
-4.58201e-311
-1.07791e-311
-1.58341e-311
-2.38942e-312
2.68634e-312
1.33459e-311
1.48347e-312
-1.46356e-312
3.33946e-312
4.89163e-312
2.75443e-312
5.20137e-312
7.70012e-312
1.12023e-311
1.67919e-311
1.34972e-311
1.26575e-311
5.44742e-312
7.19808e-312
5.23932e-312
1.06113e-311
1.2605e-311
8.70205e-312
6.1142e-312
1.02305e-311
2.66707e-312
1.32682e-312
3.29151e-312
1.49715e-312
1.15669e-312
6.17561e-312
5.14651e-312
1.42243e-314
5.48429e-312
8.94244e-313
2.35e-313
-6.97187e-314
-3.54857e-312
-1.10751e-312
-4.20865e-312
-2.47438e-312
-2.37808e-312
3.09205e-312
1.2627e-312
7.01666e-312
6.17815e-312
1.35043e-312
3.51872e-312
4.8972e-312
4.76192e-312
6.1082e-312
-1.06187e-312
-4.59546e-312
-7.38662e-312
-3.49173e-312
-8.14521e-312
-3.7708e-312
-3.62256e-312
-3.32888e-313
-3.1639e-313
1.42523e-312
4.24607e-312
3.56443e-312
7.91146e-312
8.4268e-312
2.129e-312
6.52805e-312
5.54719e-312
1.82279e-312
5.52309e-312
-7.54055e-313
-7.23397e-312
-9.12027e-312
-1.23216e-311
-1.21448e-311
-5.80756e-312
-4.12898e-312
-1.03736e-311
-8.87001e-312
-9.61073e-312
-1.62002e-311
-2.41352e-311
-3.46054e-311
-4.52788e-311
-4.93991e-311
-4.62153e-311
-3.8966e-311
-1.06723e-311
-8.73839e-312
6.03081e-312
6.78291e-312
1.07151e-311
3.47321e-312
2.01769e-312
4.20117e-312
6.14753e-312
6.08655e-312
2.51446e-312
9.38826e-312
8.90231e-312
1.49517e-311
1.37272e-311
1.36979e-311
5.12149e-312
4.81064e-312
3.99927e-312
9.83482e-312
1.19308e-311
9.39325e-312
7.88151e-312
8.87587e-312
3.33801e-312
3.37947e-312
3.23427e-312
1.6772e-312
-1.14706e-312
8.61502e-312
2.64749e-312
-9.05361e-313
-1.76902e-313
1.31588e-313
-3.04546e-312
-8.1244e-313
-4.81611e-312
-1.21549e-312
-4.74877e-312
-1.15847e-312
-5.66348e-313
3.29321e-312
7.34129e-313
8.21655e-312
5.31536e-312
1.7376e-312
5.05549e-312
5.3938e-312
5.76463e-312
3.88458e-312
1.56626e-312
-5.7222e-312
-3.93275e-312
-3.27096e-312
-6.3496e-312
-1.32199e-312
-2.41593e-312
-7.62036e-313
-3.8575e-312
1.76182e-312
4.80228e-312
4.17255e-312
9.1627e-312
6.96962e-312
1.26603e-312
4.36217e-312
4.14761e-312
1.62487e-312
2.39389e-312
2.33033e-312
-3.26605e-312
-1.80427e-312
-4.39306e-312
-3.3623e-312
-4.1012e-312
-4.9503e-312
-1.02631e-311
-5.8114e-312
-5.92371e-312
-9.84281e-312
-1.46815e-311
-2.766e-311
-4.28534e-311
-4.00422e-311
-3.11106e-311
-2.94665e-311
-2.21847e-311
-1.55401e-311
-6.70065e-312
-1.4202e-312
4.93809e-312
5.51808e-312
8.21462e-312
4.88012e-312
9.5177e-312
1.27739e-311
5.32023e-312
8.37381e-312
8.99305e-312
1.47525e-311
1.51631e-311
1.32645e-311
6.55204e-312
7.70539e-313
1.26838e-312
6.53303e-312
1.28945e-311
1.05516e-311
9.82579e-312
1.26648e-311
5.53146e-312
3.92337e-312
5.55657e-312
3.55169e-312
-1.62924e-312
1.03946e-311
2.29907e-312
2.33274e-312
1.4132e-312
3.64716e-312
7.07772e-313
1.84355e-312
-2.09787e-312
-2.41845e-312
-4.8711e-312
8.06695e-313
3.65215e-313
3.44029e-312
4.36891e-312
5.79923e-312
5.06954e-312
7.64032e-313
7.99275e-312
9.22495e-312
6.57228e-312
4.9306e-312
-1.23009e-313
-2.75713e-312
-4.10881e-312
-6.25159e-312
-6.28326e-312
-5.20723e-312
-1.17076e-312
-4.04336e-313
-3.14349e-312
3.22783e-312
-4.95627e-313
4.99575e-312
9.44609e-312
6.85986e-312
4.44206e-312
5.86115e-312
3.86564e-312
1.48465e-312
-1.73442e-312
-1.80682e-312
-6.66247e-312
-8.64313e-313
-2.85776e-312
7.07689e-313
-1.83398e-312
-8.52236e-312
-5.925e-312
-8.28116e-312
-6.05206e-312
-1.3566e-311
-1.85413e-311
-3.00008e-311
-3.86271e-311
-4.70776e-311
-3.63523e-311
-3.78857e-311
-8.70954e-312
-1.94165e-311
-1.70043e-311
-1.10269e-311
-2.25901e-312
2.67348e-312
8.27673e-312
5.45779e-312
1.25041e-311
1.07003e-311
4.35504e-312
8.37198e-312
1.28746e-311
1.41735e-311
1.31807e-311
1.45886e-311
7.50185e-312
-2.28436e-313
-1.8619e-312
6.31575e-312
1.31576e-311
1.1379e-311
9.6289e-312
1.39468e-311
5.4843e-312
6.49677e-312
7.83836e-312
3.15642e-312
3.90851e-312
8.67751e-312
4.39868e-312
2.42224e-312
2.60112e-312
1.61999e-312
-1.67301e-312
-2.08946e-312
-3.75063e-312
-4.90417e-312
-4.39348e-312
-4.72775e-313
2.34713e-313
4.06062e-312
6.03774e-312
5.61478e-312
5.81124e-312
9.5195e-313
5.55465e-312
8.21089e-312
7.03497e-312
7.88973e-312
2.47825e-314
-3.08746e-312
-7.5867e-312
-7.4687e-312
-9.90064e-312
-9.32578e-312
-2.8117e-313
1.88919e-312
-1.67622e-312
2.65371e-312
-2.30586e-314
6.23728e-312
1.05781e-311
8.46176e-312
4.81076e-312
1.56172e-312
3.42865e-312
3.6426e-314
3.15284e-312
-1.8539e-312
-1.94502e-312
1.09338e-312
-7.45433e-313
-2.14284e-312
4.20621e-313
-8.45726e-312
-3.88382e-312
-4.59001e-312
-4.08243e-312
-1.39268e-311
-1.98679e-311
-2.70198e-311
-3.81444e-311
-4.6012e-311
-4.65587e-311
-5.04599e-311
-3.81655e-312
-1.12938e-311
-1.86145e-311
-2.10488e-311
-1.65531e-312
6.88315e-314
3.77291e-313
7.74852e-313
5.21922e-312
1.00463e-311
6.79568e-312
4.43567e-312
1.17807e-311
1.56888e-311
1.48358e-311
1.52869e-311
6.75142e-312
9.25433e-315
8.73915e-313
5.79348e-312
1.11095e-311
1.2327e-311
1.32978e-311
1.30711e-311
9.55224e-312
8.59195e-312
1.0234e-311
6.69343e-312
5.65478e-312
9.37199e-312
2.53694e-312
1.83428e-312
4.79637e-314
-1.45288e-312
-4.75909e-312
-4.50714e-312
-5.17171e-312
-6.52772e-312
-6.84601e-312
-2.94943e-312
-1.96966e-312
3.20183e-312
5.28023e-312
8.90052e-312
6.94279e-312
5.43633e-312
6.08899e-312
6.91862e-312
6.92174e-312
5.83297e-312
-3.53308e-312
-3.98349e-312
-6.35579e-312
-6.30604e-312