/*--------------------------------*- C++ -*----------------------------------*\
  =========                 |
  \\      /  F ield         | OpenFOAM: The Open Source CFD Toolbox
   \\    /   O peration     | Website:  https://openfoam.org
    \\  /    A nd           | Version:  11
     \\/     M anipulation  |
\*---------------------------------------------------------------------------*/
FoamFile
{
    format      ascii;
    class       volScalarField;
    location    "5";
    object      C;
}
// * * * * * * * * * * * * * * * * * * * * * * * * * * * * * * * * * * * * * //

dimensions      [0 0 0 1 0 0 0];

internalField   nonuniform List<scalar> 
104620
(
0
0
0
0
0
0
0
0
0
0
0
0
0
0
0
0
0
0
0
0
0
0
0
0
0
0
0
0
0
0
0
0
0
0
0
0
0
0
0
0
0
0
0
0
0
0
0
0
0
0
0
0
0
0
0
0
0
0
0
0
0
0
0
0
0
0
0
0
0
0
0
0
0
0
0
0
0
0
0
0
0
0
0
0
0
0
0
0
-3.45846e-323
0
0
0
0
0
0
0
0
0
0
0
0
0
0
0
0
0
0
0
0
0
0
0
0
0
0
0
0
0
0
0
0
0
0
0
0
0
0
0
0
0
0
0
-3.40905e-322
0
0
0
0
0
0
0
0
0
0
0
0
0
0
0
0
0
0
0
0
0
0
0
0
0
0
0
0
0
0
0
0
0
0
0
0
0
0
0
0
0
0
0
-3.18672e-321
0
0
0
0
0
0
0
0
0
0
0
0
0
0
0
0
0
0
0
0
0
0
0
0
0
0
0
0
0
0
0
0
0
0
0
0
0
0
0
0
0
0
0
-2.92635e-320
-2.96439e-323
0
0
0
0
0
0
0
0
0
0
0
0
0
0
0
0
0
0
0
0
0
0
0
0
0
0
0
0
0
0
0
0
0
0
0
0
0
0
0
0
0
0
-2.68821e-319
-6.22523e-322
-4.94066e-324
0
0
0
0
0
0
0
0
0
0
0
0
0
0
0
0
0
0
0
0
0
0
0
0
0
0
0
0
0
0
0
0
0
0
0
0
0
0
0
0
0
-2.46783e-318
-1.09139e-320
-3.21143e-322
-9.88131e-324
0
0
0
0
0
0
0
0
0
0
0
0
0
0
0
0
0
0
0
0
0
0
0
0
0
0
0
0
0
0
0
0
0
0
0
0
0
0
0
0
-2.26303e-317
-1.89262e-319
-7.74201e-321
-2.96439e-322
-9.88131e-324
0
0
0
0
0
0
0
0
0
0
0
0
0
0
0
0
0
0
0
0
0
0
0
0
0
0
0
0
0
0
0
0
0
0
0
0
0
0
0
-2.07132e-316
-3.26138e-318
-1.85591e-319
-8.93765e-321
-4.59481e-322
-1.4822e-323
0
0
0
0
0
0
0
0
0
0
0
0
0
0
0
0
0
0
0
0
0
0
0
0
0
0
0
0
0
0
0
0
0
0
0
0
0
0
-1.88923e-315
-5.59819e-317
-4.42622e-318
-2.64187e-319
-1.59139e-320
-9.63428e-322
-5.43472e-323
0
0
0
0
0
0
0
0
0
0
0
0
0
0
0
0
0
0
0
0
0
0
0
0
0
0
0
0
0
0
0
0
0
0
0
0
0
-1.71189e-314
-9.55588e-316
-1.05331e-316
-7.8049e-318
-5.55231e-319
-3.78405e-320
-2.50491e-321
-1.58101e-322
-9.88131e-324
0
0
0
0
0
0
0
0
0
0
0
0
0
0
0
0
0
0
0
0
0
0
0
0
0
0
0
0
0
0
0
0
0
0
0
-1.53201e-313
-1.61834e-314
-2.49991e-315
-2.30197e-316
-1.93512e-317
-1.50907e-318
-1.11847e-319
-7.89023e-321
-5.33591e-322
-2.96439e-323
0
0
0
0
0
0
0
0
0
0
0
0
0
0
0
0
0
0
0
0
0
0
0
0
0
0
0
0
0
0
0
0
0
0
-1.33849e-312
-2.71e-313
-5.91353e-314
-6.7761e-315
-6.73536e-316
-6.01289e-317
-4.98641e-318
-3.87278e-319
-2.83396e-320
-1.97132e-321
-1.38338e-322
-9.88131e-324
0
0
0
0
0
0
0
0
0
0
0
0
0
0
0
0
0
0
0
0
0
0
0
0
0
0
0
0
0
0
0
0
-1.11422e-311
-4.46408e-312
-1.39303e-312
-1.98998e-313
-2.34082e-314
-2.39334e-315
-2.2213e-316
-1.89746e-317
-1.50615e-318
-1.1238e-319
-7.91493e-321
-5.2865e-322
-2.47033e-323
0
0
0
0
0
0
0
0
0
0
0
0
0
0
0
0
0
0
0
0
0
0
0
0
0
0
0
0
0
0
0
-8.33578e-311
-3.79381e-311
-1.2116e-311
-2.1818e-312
-2.88457e-313
-3.12558e-314
-3.05306e-315
-2.73836e-316
-2.27224e-317
-1.77547e-318
-1.31031e-319
-9.1995e-321
-6.0276e-322
-2.96439e-323
0
0
0
0
0
0
0
0
0
0
0
0
0
0
0
0
0
0
0
0
0
0
0
0
0
0
0
0
0
0
-5.72139e-310
-2.65974e-310
-8.15428e-311
-1.98293e-311
-3.29221e-312
-3.73116e-313
-3.73756e-314
-3.42256e-315
-2.8602e-316
-2.28255e-317
-1.71819e-318
-1.23072e-319
-8.41394e-321
-5.43472e-322
-2.96439e-323
0
0
0
0
0
0
0
0
0
0
0
0
0
0
0
0
0
0
0
0
0
0
0
0
0
0
0
0
0
-3.8427e-309
-1.78284e-309
-5.44045e-310
-1.27425e-310
-2.23065e-311
-2.94121e-312
-3.12198e-313
-2.98046e-314
-2.37526e-315
-1.98484e-316
-1.54914e-317
-1.14755e-318
-8.11947e-320
-5.54342e-321
-3.70549e-322
-9.88131e-324
0
0
0
0
0
0
0
0
0
0
0
0
0
0
0
0
0
0
0
0
0
0
0
0
0
0
0
0
-2.59585e-308
-1.20415e-308
-3.68246e-309
-8.5405e-310
-1.58895e-310
-2.58933e-311
-3.07024e-312
-3.08943e-313
-1.47737e-314
-1.37456e-315
-1.11952e-316
-8.62004e-318
-6.30704e-319
-4.42139e-320
-2.96933e-321
-2.07508e-322
-4.94066e-324
0
0
0
0
0
0
0
0
0
0
0
0
0
0
0
0
0
0
0
0
0
0
0
0
0
0
0
-1.75216e-307
-8.12766e-308
-2.4853e-308
-5.78571e-309
-1.09679e-309
-1.78734e-310
-2.44855e-311
-3.48322e-312
3.31032e-313
2.02367e-314
1.37143e-315
8.60775e-317
5.10846e-318
2.84004e-319
1.47232e-320
7.65802e-322
2.96439e-323
-4.94066e-324
0
0
0
0
0
0
0
0
0
0
0
0
0
0
0
0
0
0
0
0
0
0
0
0
0
0
-1.18214e-306
-5.48411e-307
-1.67708e-307
-3.90663e-308
-7.4281e-309
-1.20708e-309
-1.71976e-310
-2.29675e-311
-2.35729e-312
-3.75838e-313
-2.5427e-314
-1.6819e-315
-1.03489e-316
-6.15176e-318
-3.55703e-319
-2.01184e-320
-1.13635e-321
-8.39912e-323
9.88131e-324
0
0
0
0
0
0
0
0
0
0
0
0
0
0
0
0
0
0
0
0
0
0
0
0
0
-7.97284e-306
-3.69906e-306
-1.13135e-306
-2.63583e-307
-5.01396e-308
-8.14253e-309
-1.1611e-309
-1.50091e-310
-1.74597e-311
-1.75564e-312
-1.47831e-313
-1.44421e-314
-1.01064e-315
-6.75974e-317
-4.35081e-318
-2.71217e-319
-1.6482e-320
-1.01283e-321
-6.42285e-323
4.94066e-324
0
0
0
0
0
0
0
0
0
0
0
0
0
0
0
0
0
0
0
0
0
0
0
0
-5.37525e-305
-2.49413e-305
-7.6292e-306
-1.77772e-306
-3.38232e-307
-5.49243e-308
-7.8435e-309
-1.00714e-309
-1.1824e-310
-1.22765e-311
-1.11964e-312
-2.84685e-313
-1.92574e-314
-1.25583e-315
-7.93514e-317
-4.8868e-318
-2.94532e-319
-1.74702e-320
-1.02766e-321
-3.95253e-323
0
0
0
0
0
0
0
0
0
0
0
0
0
0
0
0
0
0
0
0
0
0
0
0
-3.62263e-304
-1.68107e-304
-5.14279e-305
-1.19852e-305
-2.28065e-306
-3.70388e-307
-5.29031e-308
-6.79105e-309
-7.97137e-310
-8.73267e-311
-8.30256e-312
-1.09904e-312
-8.8843e-314
-6.64978e-315
-4.67739e-316
-3.17035e-317
-2.07677e-318
-1.3238e-319
-8.22619e-321
-4.94066e-322
-1.97626e-323
0
0
0
0
0
0
0
0
0
0
0
0
0
0
0
0
0
0
0
0
0
0
0
-2.44053e-303
-1.13263e-303
-3.46541e-304
-8.07721e-305
-1.53723e-305
-2.49689e-306
-3.5668e-307
-4.5789e-308
-5.37127e-309
-5.83059e-310
-5.92355e-311
-5.81218e-312
-5.38836e-313
-4.19577e-314
-2.80398e-315
-1.92313e-316
-1.28603e-317
-8.41379e-319
-5.40014e-320
-3.36459e-321
-2.17389e-322
-9.88131e-324
0
0
0
0
0
0
0
0
0
0
0
0
0
0
0
0
0
0
0
0
0
0
-1.64353e-302
-7.62825e-303
-2.33423e-303
-5.44141e-304
-1.03574e-304
-1.68258e-305
-2.4039e-306
-3.08638e-307
-3.62018e-308
-3.93005e-309
-3.98797e-310
-3.90172e-311
-3.09436e-312
-4.17522e-313
-1.8563e-314
-1.27103e-315
-8.48473e-317
-5.55109e-318
-3.57427e-319
-2.26776e-320
-1.41303e-321
-1.13635e-322
4.94066e-324
0
0
0
0
0
0
0
0
0
0
0
0
0
0
0
0
0
0
0
0
0
-1.10638e-301
-5.1356e-302
-1.57167e-302
-3.66431e-303
-6.97584e-304
-1.1334e-304
-1.61953e-305
-2.07961e-306
-2.43955e-307
-2.64899e-308
-2.69121e-309
-2.59503e-310
-2.34017e-311
-2.68237e-312
4.71868e-313
2.65564e-314
1.44943e-315
7.67778e-317
3.949e-318
1.96999e-319
9.50088e-321
4.15015e-322
3.95253e-323
4.94066e-324
0
0
0
0
0
0
0
0
0
0
0
0
0
0
0
0
0
0
-3.95253e-323
-5.92879e-323
-7.44481e-301
-3.45608e-301
-1.05781e-301
-2.46661e-302
-4.69644e-303
-7.63167e-304
-1.09066e-304
-1.4007e-305
-1.64336e-306
-1.78469e-307
-1.81362e-308
-1.74215e-309
-1.58932e-310
-1.36639e-311
-7.98431e-314
1.61842e-314
2.20793e-315
1.9306e-316
1.42599e-317
9.60513e-319
6.09776e-320
3.72525e-321
2.32211e-322
1.97626e-323
0
0
0
0
0
0
0
0
0
0
0
0
0
0
0
0
0
-6.42285e-323
-2.47033e-322
-5.58294e-322
-5.00759e-300
-2.32488e-300
-7.1167e-301
-1.65972e-301
-3.16057e-302
-5.13666e-303
-7.342e-304
-9.43048e-305
-1.10658e-305
-1.20192e-306
-1.22157e-307
-1.17259e-308
-1.07198e-309
-9.39684e-311
-6.83867e-312
-5.86947e-313
-3.27702e-314
-1.6714e-315
-7.9983e-317
-3.53598e-318
-1.38595e-319
-4.20944e-321
-9.88131e-324
-1.4822e-323
-4.94066e-324
0
0
0
0
0
0
0
0
0
0
0
0
0
0
-1.97626e-323
-1.03754e-322
-5.43472e-322
-1.98614e-321
-4.8122e-321
-3.36687e-299
-1.56329e-299
-4.78597e-300
-1.11632e-300
-2.12611e-301
-3.45593e-302
-4.94042e-303
-6.34669e-304
-7.44836e-305
-8.09121e-306
-8.22463e-307
-7.89529e-308
-7.21515e-309
-6.32453e-310
-5.23165e-311
-3.99838e-312
-3.4193e-313
-2.07512e-314
-1.22156e-315
-7.02636e-317
-3.96058e-318
-2.19587e-319
-1.19762e-320
-6.71929e-322
-5.43472e-323
-1.4822e-323
0
0
0
0
0
0
0
0
0
0
0
0
-1.97626e-323
-1.72923e-322
-8.94259e-322
-4.55529e-321
-1.70798e-320
-4.1215e-320
-2.26277e-298
-1.05074e-298
-3.21722e-299
-7.5052e-300
-1.42963e-300
-2.32418e-301
-3.32302e-302
-4.26954e-303
-5.01139e-304
-5.44469e-305
-5.53526e-306
-5.31429e-307
-4.85673e-308
-4.25422e-309
-3.57902e-310
-2.92468e-311
-2.59817e-312
-1.67252e-313
-1.02966e-314
-6.28367e-316
-3.78477e-317
-2.25769e-318
-1.33808e-319
-7.92481e-321
-5.03947e-322
-4.94066e-323
4.94066e-324
0
0
0
0
0
0
0
0
0
0
-1.97626e-323
-1.92686e-322
-1.27469e-321
-7.83094e-321
-3.90509e-320
-1.45646e-319
-3.51577e-319
-1.5201e-297
-7.05939e-298
-2.16175e-298
-5.04372e-299
-9.60901e-300
-1.56239e-300
-2.23418e-301
-2.87099e-302
-3.37034e-303
-3.66228e-304
-3.72373e-305
-3.57557e-306
-3.26815e-307
-2.86338e-308
-2.41864e-309
-1.97441e-310
-1.65174e-311
-1.28336e-312
-7.49262e-314
-4.68043e-315
-2.89471e-316
-1.77867e-317
-1.0895e-318
-6.6768e-320
-4.13039e-321
-2.56914e-322
-1.97626e-323
0
0
0
0
0
0
0
0
0
-1.97626e-323
-1.72923e-322
-1.45255e-321
-1.08003e-320
-6.67829e-320
-3.32946e-319
-1.24217e-318
-2.99961e-318
-1.02074e-296
-4.74079e-297
-1.45193e-297
-3.38808e-298
-6.45575e-299
-1.04984e-299
-1.50148e-300
-1.92974e-301
-2.26571e-302
-2.46233e-303
-2.504e-304
-2.4047e-305
-2.19826e-306
-1.92629e-307
-1.62805e-308
-1.33436e-309
-1.07166e-310
-8.62564e-312
-1.16294e-313
-1.05755e-314
-8.34976e-316
-6.13014e-317
-4.31354e-318
-2.95847e-319
-2.00442e-320
-1.35374e-321
-8.89318e-323
-9.88131e-324
0
0
0
0
0
0
0
-1.97626e-323
-1.67982e-322
-1.46243e-321
-1.24505e-320
-9.13182e-320
-5.66352e-319
-2.83271e-318
-1.05908e-317
-2.55884e-317
-6.85119e-296
-3.18232e-296
-9.74747e-297
-2.27491e-297
-4.33535e-298
-7.05129e-299
-1.00863e-299
-1.29651e-300
-1.52247e-301
-1.65483e-302
-1.68308e-303
-1.61656e-304
-1.47798e-305
-1.2953e-306
-1.09496e-307
-8.97854e-309
-7.18057e-310
-5.70491e-311
-3.725e-312
-2.18236e-313
-1.27228e-314
-7.47832e-316
-4.46392e-317
-2.71066e-318
-1.67696e-319
-1.0573e-320
-6.71929e-322
-6.42285e-323
4.94066e-324
0
0
0
0
0
-1.97626e-323
-1.33398e-322
-1.24505e-321
-1.20305e-320
-1.02612e-319
-7.60767e-319
-4.76253e-318
-2.40056e-317
-9.02111e-317
-2.18242e-316
-4.59648e-295
-2.13522e-295
-6.54103e-296
-1.52681e-296
-2.91011e-297
-4.73392e-298
-6.77252e-299
-8.70688e-300
-1.02259e-300
-1.11165e-301
-1.1308e-302
-1.08626e-303
-9.93278e-305
-8.70624e-306
-7.36076e-307
-6.03676e-308
-4.82742e-309
-3.79086e-310
-2.88808e-311
-2.11085e-312
-1.31649e-313
-7.85038e-315
-4.68298e-316
-2.80867e-317
-1.70234e-318
-1.04683e-319
-6.56613e-321
-4.19956e-322
-9.88131e-324
0
0
0
0
4.94066e-324
-8.89318e-323
-9.18962e-322
-9.68369e-321
-9.3665e-320
-8.11305e-319
-6.13606e-318
-3.91948e-317
-2.01287e-316
-7.66947e-316
-1.861e-315
-3.08239e-294
-1.43201e-294
-4.38737e-295
-1.02425e-295
-1.95254e-296
-3.17672e-297
-4.54544e-298
-5.8446e-299
-6.86529e-300
-7.46438e-301
-7.59402e-302
-7.29598e-303
-6.67239e-304
-5.84926e-305
-4.94597e-306
-4.05685e-307
-3.24458e-308
-2.54266e-309
-1.96068e-310
-1.54707e-311
-1.36634e-312
-8.24599e-314
-4.94017e-315
-2.95821e-316
-1.78704e-317
-1.09344e-318
-6.80427e-320
-4.31813e-321
-2.81617e-322
-9.88131e-324
0
0
4.94066e-324
-3.95253e-323
-5.2371e-322
-6.161e-321
-6.64963e-320
-6.58431e-319
-5.86571e-318
-4.59287e-317
-3.05517e-316
-1.63936e-315
-6.49347e-315
-1.58658e-314
-2.06609e-293
-9.59953e-294
-2.94146e-294
-6.86801e-295
-1.30946e-295
-2.13078e-296
-3.04932e-297
-3.92148e-298
-4.60703e-299
-5.00981e-300
-5.09758e-301
-4.89822e-302
-4.4802e-303
-3.92804e-304
-3.32189e-305
-2.72509e-306
-2.17977e-307
-1.70822e-308
-1.31749e-309
-1.02001e-310
-8.40668e-312
-6.13359e-313
-3.9859e-314
-2.44877e-315
-1.51292e-316
-9.44196e-318
-5.97686e-319
-3.85075e-320
-2.5395e-321
-1.72923e-322
-9.88131e-324
4.94066e-324
-2.47033e-323
-3.16202e-322
-3.2806e-321
-3.71686e-320
-3.94022e-319
-3.89097e-318
-3.52981e-317
-2.88476e-316
-2.06025e-315
-1.22203e-314
-5.44659e-314
-1.35233e-313
-1.38424e-292
-6.43208e-293
-1.97115e-293
-4.60312e-294
-8.77772e-295
-1.42855e-295
-2.0447e-296
-2.62994e-297
-3.09018e-298
-3.36086e-299
-3.42024e-300
-3.28697e-301
-3.00688e-302
-2.63667e-303
-2.2301e-304
-1.82968e-305
-1.46374e-306
-1.1473e-307
-8.85082e-309
-6.75894e-310
-5.20811e-311
-4.19775e-312
-4.25999e-313
-2.55563e-314
-1.54616e-315
-9.49113e-317
-5.92792e-318
-3.78202e-319
-2.47428e-320
-1.69465e-321
-1.18576e-322
-2.96439e-323
-1.97626e-322
-2.34681e-321
-2.55877e-320
-2.57186e-319
-2.37683e-318
-2.01295e-317
-1.57474e-316
-1.16882e-315
-8.58121e-315
-6.34074e-314
-4.46896e-313
-1.15242e-312
-9.2697e-292
-4.30771e-292
-1.32029e-292
-3.08368e-293
-5.88121e-294
-9.57307e-295
-1.37042e-295
-1.76294e-296
-2.07178e-297
-2.2536e-298
-2.29377e-299
-2.20471e-300
-2.01713e-301
-1.76903e-302
-1.49645e-303
-1.22793e-304
-9.82465e-306
-7.70171e-307
-5.94228e-308
-4.53298e-309
-3.44869e-310
-2.652e-311
-2.44274e-312
-1.58746e-313
-1.00595e-314
-6.47106e-316
-4.20471e-317
-2.7739e-318
-1.86772e-319
-1.29149e-320
-9.48606e-322
-2.76677e-322
-2.63337e-321
-3.10817e-320
-3.39339e-319
-3.36094e-318
-2.94311e-317
-2.17986e-316
-1.23852e-315
-3.67247e-315
2.12366e-314
4.20707e-313
-3.47022e-312
-9.8183e-312
-6.20458e-291
-2.88359e-291
-8.8392e-292
-2.0648e-292
-3.93863e-293
-6.41208e-294
-9.1806e-295
-1.1812e-295
-1.38835e-296
-1.51042e-297
-1.53758e-298
-1.4781e-299
-1.35253e-300
-1.18634e-301
-1.00369e-302
-8.23697e-304
-6.59128e-305
-5.16768e-306
-3.98762e-307
-3.04164e-308
-2.30326e-309
-1.73988e-310
-1.25796e-311
-1.0016e-312
-5.70811e-314
-3.76612e-315
-2.51155e-316
-1.70048e-317
-1.17421e-318
-8.31216e-320
-6.21535e-321
-2.85076e-321
-3.21686e-320
-4.03889e-319
-4.73527e-318
-5.12596e-317
-5.05666e-316
-4.47393e-315
-3.47839e-314
-2.3061e-313
-1.25367e-312
-8.3385e-312
-2.92119e-311
-6.6557e-311
-4.15095e-290
-1.92934e-290
-5.91486e-291
-1.3819e-291
-2.63641e-292
-4.29276e-293
-6.14722e-294
-7.91045e-295
-9.29917e-296
-1.01184e-296
-1.03019e-297
-9.90484e-299
-9.06477e-300
-7.95208e-301
-6.72867e-302
-5.52278e-303
-4.41996e-304
-3.46578e-305
-2.6747e-306
-2.04037e-307
-1.54486e-308
-1.16594e-309
-8.7891e-311
-7.06061e-312
1.37136e-313
4.22781e-315
1.55153e-317
-1.42563e-317
-1.8918e-318
-1.89504e-319
-1.86856e-320
-2.18624e-320
-2.85733e-319
-3.77233e-318
-4.6413e-317
-5.25368e-316
-5.39276e-315
-4.94004e-314
-3.98478e-313
-2.72096e-312
-1.3728e-311
-6.22381e-311
-2.07757e-310
-4.44585e-310
-2.77567e-289
-1.29024e-289
-3.95605e-290
-9.24404e-291
-1.76387e-291
-2.87251e-292
-4.11409e-293
-5.295e-294
-6.22557e-295
-6.77509e-296
-6.899e-297
-6.63411e-298
-6.07234e-299
-5.32773e-300
-4.50871e-301
-3.70118e-302
-2.96251e-303
-2.32327e-304
-1.7932e-305
-1.3681e-306
-1.03601e-307
-7.81902e-309
-5.90565e-310
-4.51058e-311
-2.9413e-312
-1.66974e-313
-9.5208e-315
-5.65104e-316
-3.53584e-317
-2.33832e-318
-1.70191e-319
-1.19011e-319
-1.70196e-318
-2.54056e-317
-3.51513e-316
-4.43563e-315
-4.98734e-314
-4.80144e-313
-4.20488e-312
-2.11581e-311
-1.0616e-310
-4.47749e-310
-1.44171e-309
-3.11881e-309
-1.85512e-288
-8.62413e-289
-2.64461e-289
-6.18059e-290
-1.17952e-290
-1.92119e-291
-2.75203e-292
-3.54256e-293
-4.16581e-294
-4.53424e-295
-4.61788e-296
-4.44125e-297
-4.06577e-298
-3.56773e-299
-3.0197e-300
-2.47921e-301
-1.98468e-302
-1.55664e-303
-1.20164e-304
-9.16895e-306
-6.94419e-307
-5.24137e-308
-3.95826e-309
-2.99905e-310
-2.22222e-311
-1.87253e-312
-1.17142e-313
-7.22647e-315
-4.61513e-316
-3.03369e-317
-2.03859e-318
1.99617e-319
3.0154e-318
3.82924e-318
-6.06277e-316
-1.78608e-314
-3.55977e-313
-3.16375e-312
-2.69741e-311
-1.48096e-310
-7.48591e-310
-3.14484e-309
-1.01098e-308
-2.1868e-308
-1.23924e-287
-5.76155e-288
-1.76703e-288
-4.13026e-289
-7.88358e-290
-1.28428e-290
-1.83999e-291
-2.36891e-292
-2.78614e-293
-3.03303e-294
-3.08946e-295
-2.97175e-296
-2.72091e-297
-2.38796e-298
-2.02144e-299
-1.65986e-300
-1.32895e-301
-1.04248e-302
-8.04842e-304
-6.14202e-305
-4.65231e-306
-3.51188e-307
-2.65254e-308
-2.01287e-309
-1.53143e-310
-1.17323e-311
-9.43616e-313
-5.54339e-314
-3.72857e-315
-2.5506e-316
-1.74428e-317
8.74725e-318
1.79954e-316
2.95987e-315
4.48874e-314
6.27352e-313
-3.72911e-312
-2.41548e-311
-1.76075e-310
-1.03361e-309
-5.27187e-309
-2.20842e-308
-7.09314e-308
-1.53402e-307
-8.27403e-287
-3.84715e-287
-1.18005e-287
-2.75869e-288
-5.26647e-289
-8.5808e-290
-1.22957e-290
-1.58329e-291
-1.86245e-292
-2.02782e-293
-2.06587e-294
-1.98747e-295
-1.81999e-296
-1.59752e-297
-1.35251e-298
-1.11074e-299
-8.89429e-301
-6.97795e-302
-5.38803e-303
-4.11233e-304
-3.11531e-305
-2.35194e-306
-1.77661e-307
-1.34817e-308
-1.03035e-309
-8.03783e-311
-6.43965e-312
1.5469e-314
-4.74871e-315
-5.568e-316
-6.07034e-317
-1.2574e-316
-1.53356e-315
-1.81056e-314
-1.96616e-313
-1.9271e-312
-2.41896e-311
-1.78909e-310
-1.2194e-309
-7.25907e-309
-3.70259e-308
-1.54965e-307
-4.97521e-307
-1.07553e-306
-5.52143e-286
-2.56752e-286
-7.87646e-287
-1.84163e-287
-3.51634e-288
-5.73022e-289
-8.21241e-290
-1.05767e-290
-1.24436e-291
-1.35506e-292
-1.38071e-293
-1.32851e-294
-1.21675e-295
-1.06817e-296
-9.04486e-298
-7.42909e-299
-5.94969e-300
-4.66843e-301
-3.60522e-302
-2.75199e-303
-2.08506e-304
-1.57434e-305
-1.18937e-306
-9.02623e-308
-6.90724e-309
-5.35766e-310
-4.30199e-311
-3.33454e-312
-3.7605e-313
-2.59392e-314
-1.78953e-315
-1.49891e-315
-1.87516e-314
-2.39145e-313
-2.82939e-312
-2.00968e-311
-1.66555e-310
-1.25886e-309
-8.54942e-309
-5.09648e-308
-2.59847e-307
-1.08698e-306
-3.48813e-306
-7.53727e-306
-3.68262e-285
-1.71261e-285
-5.25452e-286
-1.22878e-286
-2.34657e-287
-3.8246e-288
-5.48226e-289
-7.06172e-290
-8.30955e-291
-9.0503e-292
-9.22309e-293
-8.87581e-294
-8.13034e-295
-7.13865e-296
-6.0456e-297
-4.96633e-298
-3.97792e-299
-3.12171e-300
-2.41109e-301
-1.84072e-302
-1.39481e-303
-1.0533e-304
-7.95844e-306
-6.0404e-307
-4.62373e-308
-3.58433e-309
-2.82665e-310
-2.21438e-311
-2.16105e-312
-3.31197e-313
-2.30331e-314
-1.18075e-314
-1.4949e-313
-2.11512e-312
-1.62186e-311
-1.41259e-310
-1.1753e-309
-8.8633e-309
-6.00273e-308
-3.57682e-307
-1.82275e-306
-7.62097e-306
-2.44437e-305
-5.27959e-305
-2.45488e-284
-1.14175e-284
-3.50351e-285
-8.19433e-286
-1.56511e-286
-2.55136e-287
-3.65778e-288
-4.7124e-289
-5.54602e-290
-6.04141e-291
-6.15775e-292
-5.92683e-293
-5.42988e-294
-4.7683e-295
-4.03879e-296
-3.31826e-297
-2.65823e-298
-2.08637e-299
-1.61165e-300
-1.23056e-301
-9.32588e-303
-7.04344e-304
-5.3225e-305
-4.04025e-306
-3.09316e-307
-2.39821e-308
-1.89077e-309
-1.51707e-310
-1.32435e-311
-1.45682e-312
-1.07524e-313
-3.63705e-314
-2.54113e-313
-1.19764e-311
-1.10897e-310
-1.0007e-309
-8.26572e-309
-6.2258e-308
-4.21334e-307
-2.50918e-306
-1.27801e-305
-5.34064e-305
-1.71213e-304
-3.69639e-304
-1.63557e-283
-7.60764e-284
-2.33474e-284
-5.46158e-285
-1.04333e-285
-1.70107e-286
-2.43918e-287
-3.14298e-288
-3.69959e-289
-4.03072e-290
-4.10901e-291
-3.95554e-292
-3.62445e-293
-3.18333e-294
-2.69671e-295
-2.21594e-296
-1.77543e-297
-1.39368e-298
-1.07672e-299
-8.22232e-301
-6.23217e-302
-4.70751e-303
-3.55778e-304
-2.70102e-305
-2.06813e-306
-1.60365e-307
-1.26456e-308
-1.01845e-309
-8.48599e-311
-7.42852e-312
-1.37408e-313
-7.89939e-313
-7.76702e-312
-8.37251e-311
-7.89415e-310
-7.04375e-309
-5.80622e-308
-4.37016e-307
-2.95587e-306
-1.75938e-305
-8.95644e-305
-3.74082e-304
-1.19865e-303
-2.58668e-303
-1.0891e-282
-5.06628e-283
-1.55502e-283
-3.63819e-284
-6.95126e-285
-1.13354e-285
-1.62567e-286
-2.0951e-287
-2.46656e-288
-2.68777e-289
-2.74042e-290
-2.6385e-291
-2.41803e-292
-2.12406e-293
-1.79964e-294
-1.47902e-295
-1.18517e-296
-9.3047e-298
-7.18959e-299
-5.49106e-300
-4.16255e-301
-3.14464e-302
-2.37693e-303
-1.80477e-304
-1.38206e-305
-1.07179e-306
-8.45311e-308
-6.8107e-309
-5.63321e-310
-4.85836e-311
-4.19112e-312
-5.89195e-312
-5.79999e-311
-5.85029e-310
-5.55894e-309
-4.94864e-308
-4.07594e-307
-3.06608e-306
-2.07271e-305
-1.23305e-304
-6.27369e-304
-2.61895e-303
-8.38757e-303
-1.80923e-302
-7.24817e-282
-3.372e-282
-1.03512e-282
-2.42221e-283
-4.62875e-284
-7.5494e-285
-1.08289e-285
-1.39582e-286
-1.64358e-287
-1.79128e-288
-1.82668e-289
-1.75902e-290
-1.61229e-291
-1.4165e-292
-1.20034e-293
-9.86632e-295
-7.90727e-296
-6.20884e-297
-4.79814e-298
-3.6651e-299
-2.77875e-300
-2.09951e-301
-1.58716e-302
-1.20527e-303
-9.23094e-305
-7.15956e-306
-5.64736e-307
-4.55041e-308
-3.76355e-309
-3.21308e-310
-3.16578e-311
-4.1702e-311
-4.07264e-310
-4.10584e-309
-3.90496e-308
-3.4741e-307
-2.85978e-306
-2.15009e-305
-1.4527e-304
-8.63747e-304
-4.39235e-303
-1.83262e-302
-5.86628e-302
-1.26481e-301
-4.82108e-281
-2.24307e-281
-6.88661e-282
-1.61175e-282
-3.0805e-283
-5.02511e-284
-7.20926e-285
-9.29424e-286
-1.09458e-286
-1.19315e-287
-1.21693e-288
-1.17205e-289
-1.07446e-290
-9.44127e-292
-8.00169e-293
-6.57808e-294
-5.27273e-295
-4.14078e-296
-3.20042e-297
-2.44501e-298
-1.85398e-299
-1.40098e-300
-1.05924e-301
-8.0448e-303
-6.16217e-304
-4.78003e-305
-3.77089e-306
-3.0388e-307
-2.51347e-308
-2.14698e-309
-2.13215e-310
-2.88561e-310
-2.86325e-309
-2.8835e-308
-2.74144e-307
-2.43762e-306
-2.00551e-305
-1.50701e-304
-1.01766e-303
-6.04752e-303
-3.07365e-302
-1.28174e-301
-4.10081e-301
-8.83766e-301
-3.20489e-280
-1.49125e-280
-4.57902e-281
-1.07185e-281
-2.04896e-282
-3.34297e-283
-4.79683e-284
-6.18519e-285
-7.28556e-286
-7.943e-287
-8.10265e-288
-7.8051e-289
-7.15634e-290
-6.28929e-291
-5.33114e-292
-4.38333e-293
-3.51402e-294
-2.76004e-295
-2.13355e-296
-1.63019e-297
-1.23629e-298
-9.34352e-300
-7.06532e-301
-5.36674e-302
-4.11137e-303
-3.18963e-304
-2.51657e-305
-2.02826e-306
-1.67777e-307
-1.43315e-308
-1.43849e-309
-2.01641e-309
-2.01172e-308
-2.02438e-307
-1.92361e-306
-1.70952e-305
-1.40573e-304
-1.05574e-303
-7.12541e-303
-4.23203e-302
-2.14976e-301
-8.95993e-301
-2.8652e-300
-6.17199e-300
-2.12927e-279
-9.90851e-280
-3.0429e-280
-7.12396e-281
-1.36206e-281
-2.22265e-282
-3.18984e-283
-4.11381e-284
-4.84652e-285
-5.28478e-286
-5.39191e-287
-5.19477e-288
-4.76375e-289
-4.18725e-290
-3.54989e-291
-2.91921e-292
-2.34062e-293
-1.83868e-294
-1.42153e-295
-1.08631e-296
-8.23948e-298
-6.228e-299
-4.71009e-300
-3.57822e-301
-2.74158e-302
-2.12722e-303
-1.67857e-304
-1.35303e-305
-1.11936e-306
-9.56298e-308
-9.66311e-309
-1.41244e-308
-1.41237e-307
-1.4205e-306
-1.34908e-305
-1.1983e-304
-9.84824e-304
-7.39232e-303
-4.98651e-302
-2.96005e-301
-1.50281e-300
-6.26018e-300
-2.00084e-299
-4.30812e-299
-1.41383e-278
-6.57981e-279
-2.02093e-279
-4.73213e-280
-9.04913e-281
-1.47693e-281
-2.11999e-282
-2.73455e-283
-3.22217e-284
-3.51414e-285
-3.58599e-286
-3.45546e-287
-3.16927e-288
-2.78618e-289
-2.36246e-290
-1.94304e-291
-1.55816e-292
-1.2242e-293
-9.466e-295
-7.23481e-296
-5.48826e-297
-4.14901e-298
-3.13824e-299
-2.38442e-300
-1.82716e-301
-1.4179e-302
-1.11899e-303
-9.02096e-305
-7.46397e-306
-6.3778e-307
-6.48811e-308
-9.88924e-308
-9.91052e-307
-9.96262e-306
-9.4567e-305
-8.39526e-304
-6.89597e-303
-5.17347e-302
-3.48787e-301
-2.0693e-300
-1.05001e-299
-4.37161e-299
-1.39651e-298
-3.00553e-298
-9.38227e-278
-4.36679e-278
-1.3414e-278
-3.1415e-279
-6.00846e-280
-9.80825e-281
-1.40813e-281
-1.81666e-282
-2.14098e-283
-2.33539e-284
-2.38355e-285
-2.29717e-286
-2.10727e-287
-1.85284e-288
-1.57131e-289
-1.29255e-290
-1.03668e-291
-8.14612e-293
-6.29984e-294
-4.81563e-295
-3.65362e-296
-2.76245e-297
-2.08976e-298
-1.58801e-299
-1.21704e-300
-9.44567e-302
-7.45545e-303
-6.01113e-304
-4.97427e-305
-4.25122e-306
-4.35519e-307
-6.92132e-307
-6.95066e-306
-6.98368e-305
-6.62552e-304
-5.8787e-303
-4.82623e-302
-3.61875e-301
-2.43836e-300
-1.44585e-299
-7.33249e-299
-3.05117e-298
-9.74193e-298
-2.09567e-297
-6.22242e-277
-2.89636e-277
-8.89833e-278
-2.08429e-278
-3.98713e-279
-6.50979e-280
-9.34755e-281
-1.20616e-281
-1.42174e-282
-1.55112e-283
-1.58338e-284
-1.52626e-285
-1.40031e-286
-1.23145e-287
-1.0445e-288
-8.59335e-290
-6.89331e-291
-5.4175e-292
-4.19027e-293
-3.20354e-294
-2.43088e-295
-1.83822e-296
-1.39078e-297
-1.05701e-298
-8.10195e-300
-6.28891e-301
-4.96449e-302
-4.00327e-303
-3.31318e-304
-2.83212e-305
-2.92273e-306
-4.84224e-306
-4.8723e-305
-4.89297e-304
-4.63955e-303
-4.11438e-302
-3.37594e-301
-2.52992e-300
-1.70375e-299
-1.00969e-298
-5.11776e-298
-2.12842e-297
-6.79221e-297
-1.46045e-296
-4.12429e-276
-1.91991e-276
-5.89924e-277
-1.38204e-277
-2.64422e-278
-4.318e-279
-6.20143e-280
-8.00346e-281
-9.43565e-282
-1.02961e-282
-1.0512e-283
-1.01345e-284
-9.29984e-286
-8.1797e-287
-6.93906e-288
-5.70982e-289
-4.58095e-290
-3.60075e-291
-2.78549e-292
-2.12988e-293
-1.61641e-294
-1.2225e-295
-9.25066e-297
-7.03155e-298
-5.39043e-299
-4.18475e-300
-3.30391e-301
-2.66456e-302
-2.20553e-303
-1.88568e-304
-1.96097e-305
-3.38634e-305
-3.41364e-304
-3.42638e-303
-3.24717e-302
-2.87805e-301
-2.36022e-300
-1.76777e-299
-1.18983e-298
-7.04734e-298
-3.57004e-297
-1.48393e-296
-4.73305e-296
-1.01722e-295
-2.73196e-275
-1.27187e-275
-3.90858e-276
-9.15831e-277
-1.75255e-277
-2.86243e-278
-4.11171e-279
-5.30747e-280
-6.25836e-281
-6.83028e-282
-6.97476e-283
-6.72545e-284
-6.17257e-285
-5.43e-286
-4.60717e-287
-3.79162e-288
-3.04247e-289
-2.39183e-290
-1.85057e-291
-1.41522e-292
-1.0742e-293
-8.12539e-295
-6.14939e-296
-4.6749e-297
-3.58431e-298
-2.78299e-299
-2.1975e-300
-1.7725e-301
-1.46734e-302
-1.2548e-303
-1.3154e-304
-2.36722e-304
-2.39043e-303
-2.39811e-302
-2.27146e-301
-2.01216e-300
-1.64922e-299
-1.23455e-298
-8.30474e-298
-4.91614e-297
-2.48903e-296
-1.03403e-295
-3.29634e-295
-7.08117e-295
-1.80855e-274
-8.42052e-275
-2.58806e-275
-6.06519e-276
-1.16086e-276
-1.89636e-277
-2.72451e-278
-3.51749e-279
-4.14844e-280
-4.52836e-281
-4.62496e-282
-4.46042e-283
-4.09444e-284
-3.60247e-285
-3.05707e-286
-2.51633e-287
-2.01947e-288
-1.58785e-289
-1.22872e-290
-9.39798e-292
-7.13444e-293
-5.39739e-294
-4.0854e-295
-3.10626e-296
-2.38195e-297
-1.84969e-298
-1.46075e-299
-1.1784e-300
-9.75656e-302
-8.34506e-303
-8.82167e-304
-1.65411e-303
-1.67303e-302
-1.67754e-301
-1.58808e-300
-1.40602e-299
-1.15178e-298
-8.61705e-298
-5.79337e-297
-3.42756e-296
-1.73439e-295
-7.20129e-295
-2.29446e-294
-4.92664e-294
-1.19652e-273
-5.57139e-274
-1.71261e-274
-4.01424e-275
-7.68449e-276
-1.25556e-276
-1.8042e-277
-2.32975e-278
-2.74815e-279
-3.00038e-280
-3.06493e-281
-2.95641e-282
-2.7143e-283
-2.38856e-284
-2.02728e-285
-1.66896e-286
-1.33963e-287
-1.05348e-288
-8.15334e-290
-6.23713e-291
-4.7356e-292
-3.58314e-293
-2.71255e-294
-2.06274e-295
-1.58198e-296
-1.22865e-297
-9.70434e-299
-7.82966e-300
-6.48344e-301
-5.54666e-302
-5.91499e-303
-1.15532e-302
-1.17031e-301
-1.17285e-300
-1.1097e-299
-9.81944e-299
-8.03936e-298
-6.01131e-297
-4.03922e-296
-2.38839e-295
-1.20788e-294
-5.01238e-294
-1.59619e-293
-3.4257e-293
-7.911e-273
-3.68396e-273
-1.13258e-273
-2.65515e-274
-5.0837e-275
-8.30771e-276
-1.19402e-276
-1.54211e-277
-1.8194e-278
-1.98674e-279
-2.02985e-280
-1.95832e-281
-1.79826e-282
-1.58272e-283
-1.34355e-284
-1.10626e-285
-8.88111e-287
-6.98516e-288
-5.40697e-289
-4.13685e-290
-3.14143e-291
-2.37728e-292
-1.79994e-293
-1.36895e-294
-1.05004e-295
-8.15638e-297
-6.44312e-298
-5.19916e-299
-4.30582e-300
-3.68449e-301
-3.96525e-302
-8.06585e-302
-8.18203e-301
-8.19548e-300
-7.74998e-299
-6.85396e-298
-5.60834e-297
-4.19119e-296
-2.81462e-295
-1.66334e-294
-8.40721e-294
-3.48684e-293
-1.10979e-292
-2.38067e-292
-5.22719e-272
-2.43439e-272
-7.48524e-273
-1.75509e-273
-3.361e-274
-5.49352e-275
-7.89698e-276
-1.02011e-276
-1.20376e-277
-1.31472e-278
-1.34349e-279
-1.29638e-280
-1.19063e-281
-1.0481e-282
-8.89869e-284
-7.32826e-285
-5.88411e-286
-4.62872e-287
-3.58349e-288
-2.74214e-289
-2.08264e-290
-1.57628e-291
-1.19365e-292
-9.07963e-294
-6.96548e-295
-5.41132e-296
-4.27527e-297
-3.45034e-298
-2.85788e-299
-2.44604e-300
-2.65769e-301
-5.62861e-301
-5.71722e-300
-5.72358e-299
-5.40947e-298
-4.7814e-297
-3.91025e-296
-2.92053e-295
-1.96019e-294
-1.15774e-293
-5.84835e-293
-2.42421e-292
-7.7116e-292
-1.65347e-291
-3.45165e-271
-1.60763e-271
-4.9438e-272
-1.15939e-272
-2.22065e-273
-3.6303e-274
-5.21957e-275
-6.74377e-276
-7.95933e-277
-8.69461e-278
-8.8865e-279
-8.57641e-280
-7.87817e-281
-6.9363e-282
-5.89012e-283
-4.85145e-284
-3.89603e-285
-3.06529e-286
-2.37348e-287
-1.81651e-288
-1.37984e-289
-1.04451e-290
-7.91084e-292
-6.01839e-293
-4.61771e-294
-3.58791e-295
-2.83508e-296
-2.28836e-297
-1.89569e-298
-1.62289e-299
-1.78098e-300
-3.92601e-300
-3.99271e-299
-3.99502e-298
-3.77369e-297
-3.33368e-296
-2.72476e-295
-2.03395e-294
-1.36435e-293
-8.05359e-293
-4.06597e-292
-1.68444e-291
-5.35545e-291
-1.14774e-290
-2.27773e-270
-1.06096e-270
-3.26313e-271
-7.65384e-272
-1.46625e-272
-2.39747e-273
-3.44768e-274
-4.45531e-275
-5.25937e-276
-5.7463e-277
-5.87419e-278
-5.67024e-279
-5.20953e-280
-4.5875e-281
-3.89625e-282
-3.20972e-283
-2.57804e-284
-2.02866e-285
-1.57106e-286
-1.20258e-287
-9.13635e-289
-6.91711e-290
-5.23961e-291
-3.98677e-292
-3.05937e-293
-2.37745e-294
-1.87887e-295
-1.51676e-296
-1.25667e-297
-1.07609e-298
-1.19327e-299
-2.73714e-299
-2.78681e-298
-2.78693e-297
-2.63106e-296
-2.32298e-295
-1.8976e-294
-1.41569e-293
-9.49083e-293
-5.59908e-292
-2.82515e-291
-1.16973e-290
-3.717e-290
-7.96212e-290
-1.50207e-269
-6.9972e-270
-2.1524e-270
-5.04944e-271
-9.67504e-272
-1.58227e-272
-2.27581e-273
-2.94151e-274
-3.47303e-275
-3.79528e-276
-3.88047e-277
-3.74642e-278
-3.44263e-279
-3.03211e-280
-2.57567e-281
-2.12219e-282
-1.70482e-283
-1.34175e-284
-1.03926e-285
-7.95636e-287
-6.04562e-288
-4.57783e-289
-3.46818e-290
-2.6393e-291
-2.02566e-292
-1.57438e-293
-1.24439e-294
-1.00471e-295
-8.32543e-297
-7.1308e-298
-7.99363e-299
-1.90736e-298
-1.94402e-297
-1.94305e-296
-1.83336e-295
-1.61777e-294
-1.32077e-293
-9.84787e-293
-6.59824e-292
-3.89035e-291
-1.96183e-290
-8.1182e-290
-2.57827e-289
-5.52021e-289
-9.89901e-269
-4.61172e-269
-1.4188e-269
-3.32904e-270
-6.37984e-271
-1.04356e-271
-1.50127e-272
-1.94078e-273
-2.29191e-274
-2.50504e-275
-2.56175e-276
-2.47371e-277
-2.27353e-278
-2.00277e-279
-1.70158e-280
-1.40223e-281
-1.12665e-282
-8.86851e-284
-6.87029e-285
-5.2606e-286
-3.99789e-287
-3.02774e-288
-2.29417e-289
-1.74615e-290
-1.34036e-291
-1.04191e-292
-8.2365e-294
-6.65103e-295
-5.51212e-296
-4.72237e-297
-5.35406e-298
-1.32848e-297
-1.35533e-296
-1.35392e-295
-1.27677e-294