/*--------------------------------*- C++ -*----------------------------------*\
  =========                 |
  \\      /  F ield         | OpenFOAM: The Open Source CFD Toolbox
   \\    /   O peration     | Website:  https://openfoam.org
    \\  /    A nd           | Version:  11
     \\/     M anipulation  |
\*---------------------------------------------------------------------------*/
FoamFile
{
    format      ascii;
    class       volScalarField;
    location    "3";
    object      C;
}
// * * * * * * * * * * * * * * * * * * * * * * * * * * * * * * * * * * * * * //

dimensions      [0 0 0 1 0 0 0];

internalField   nonuniform List<scalar> 
175028
(
-1.66825e-231
2.35244e-233
-1.69869e-232
-7.86962e-233
-2.30157e-233
-5.1541e-234
-9.56886e-235
-1.54498e-235
-2.24362e-236
-3.00687e-237
-3.79706e-238
-4.59797e-239
-5.42163e-240
-6.31202e-241
-7.35061e-242
-8.67107e-243
-1.0494e-243
-1.32055e-244
-1.75904e-245
-2.90964e-246
-2.94795e-246
-1.38916e-245
-6.24082e-245
-2.21978e-244
-5.72064e-244
-9.47172e-244
-6.31646e-231
1.07835e-231
-3.21729e-232
-2.02975e-232
-6.55835e-233
-1.56822e-233
-3.06962e-234
-5.18545e-235
-7.83191e-236
-1.08604e-236
-1.41243e-237
-1.75396e-238
-2.11262e-239
-2.50357e-240
-2.95818e-241
-3.53047e-242
-4.31153e-243
-5.4618e-244
-7.3004e-245
-1.1618e-245
-9.35829e-246
-4.33654e-245
-2.02988e-244
-7.68035e-244
-2.17495e-243
-4.17284e-243
-2.44305e-230
4.28403e-231
-1.18415e-231
-7.64262e-232
-2.47931e-232
-5.95061e-233
-1.17123e-233
-1.9931e-234
-3.03641e-235
-4.25026e-236
-5.5811e-237
-6.99644e-238
-8.50285e-239
-1.01592e-239
-1.20913e-240
-1.45205e-241
-1.78237e-242
-2.2668e-243
-3.03781e-244
-4.81743e-245
-3.73848e-245
-1.71242e-244
-7.98824e-244
-3.01531e-243
-8.55174e-243
-1.66671e-242
-9.10503e-230
1.63278e-230
-4.3019e-231
-2.82189e-231
-9.19054e-232
-2.21148e-232
-4.36453e-233
-7.45161e-234
-1.13971e-234
-1.60254e-235
-2.11473e-236
-2.6647e-237
-3.25523e-238
-3.90884e-239
-4.67404e-240
-5.6367e-241
-6.94401e-242
-8.85721e-243
-1.18955e-243
-1.88931e-244
-1.46663e-244
-6.70097e-244
-3.11627e-243
-1.17224e-242
-3.31431e-242
-6.46409e-242
-3.37573e-229
6.13928e-230
-1.58188e-230
-1.04437e-230
-3.40602e-231
-8.20269e-232
-1.62034e-232
-2.7697e-233
-4.2427e-234
-5.97707e-235
-7.90521e-236
-9.98637e-237
-1.22327e-237
-1.473e-238
-1.76625e-239
-2.13564e-240
-2.63725e-241
-3.3708e-242
-4.53481e-243
-7.23208e-244
-5.72737e-244
-2.62291e-243
-1.21654e-242
-4.56083e-242
-1.28445e-241
-2.49665e-241
-1.24969e-228
2.3032e-229
-5.8281e-230
-3.86587e-230
-1.2618e-230
-3.04009e-231
-6.00788e-232
-1.02748e-232
-1.57498e-233
-2.22073e-234
-2.94022e-235
-3.71891e-236
-4.56185e-237
-5.50155e-238
-6.60727e-239
-8.00176e-240
-9.89619e-241
-1.26662e-241
-1.70619e-242
-2.73536e-243
-2.23012e-243
-1.02587e-242
-4.74679e-242
-1.77396e-241
-4.97651e-241
-9.63304e-241
-4.62281e-228
8.63343e-229
-2.14704e-229
-1.43048e-229
-4.67221e-230
-1.12608e-230
-2.22605e-231
-3.80829e-232
-5.83991e-233
-8.23824e-234
-1.09136e-234
-1.38134e-235
-1.69576e-236
-2.04684e-237
-2.46051e-238
-2.98267e-239
-3.69234e-240
-4.73015e-241
-6.37765e-242
-1.02849e-242
-8.67131e-243
-4.00994e-242
-1.8512e-241
-6.89679e-241
-1.9273e-240
-3.71463e-240
-1.70896e-227
3.23403e-228
-7.90545e-229
-5.29037e-229
-1.7291e-229
-4.16875e-230
-8.24315e-231
-1.41064e-231
-2.16386e-232
-3.05361e-233
-4.04691e-234
-5.12451e-235
-6.29414e-236
-7.60148e-237
-9.14319e-238
-1.10905e-238
-1.37379e-239
-1.76102e-240
-2.37607e-241
-3.85588e-242
-3.36931e-242
-1.56664e-241
-7.216e-241
-2.68007e-240
-7.46044e-240
-1.43165e-239
-6.31374e-227
1.21064e-227
-2.90904e-228
-1.95544e-228
-6.39545e-229
-1.5424e-229
-3.05073e-230
-5.22214e-231
-8.01298e-232
-1.13114e-232
-1.49961e-233
-1.89964e-234
-2.33415e-235
-2.82017e-236
-3.39367e-237
-4.11834e-238
-5.10384e-239
-6.54545e-240
-8.83665e-241
-1.44351e-241
-1.30869e-241
-6.11786e-241
-2.81149e-240
-1.04097e-239
-2.88646e-239
-5.51475e-239
-2.33114e-226
4.5289e-227
-1.0698e-227
-7.22355e-228
-2.36412e-228
-5.70346e-229
-1.12841e-229
-1.93211e-230
-2.96557e-231
-4.18764e-232
-5.55362e-233
-7.03751e-234
-8.65036e-235
-1.04555e-235
-1.25865e-236
-1.52802e-237
-1.89441e-238
-2.43042e-239
-3.28287e-240
-5.40001e-241
-5.08194e-241
-2.38798e-240
-1.09489e-239
-4.04129e-239
-1.11622e-238
-2.12316e-238
-8.60154e-226
1.69307e-226
-3.93168e-227
-2.66685e-227
-8.73401e-228
-2.10778e-228
-4.17132e-229
-7.14439e-230
-1.09691e-230
-1.54943e-231
-2.05552e-232
-2.60564e-233
-3.20394e-234
-3.87393e-235
-4.66521e-236
-5.66567e-237
-7.02667e-238
-9.01796e-239
-1.21869e-239
-2.01922e-240
-1.97307e-240
-9.31671e-240
-4.26185e-239
-1.56816e-238
-4.3143e-238
-8.1696e-238
-3.17179e-225
6.32498e-226
-1.44403e-226
-9.83983e-227
-3.22477e-227
-7.7849e-228
-1.54108e-228
-2.64024e-229
-4.05493e-230
-5.72957e-231
-7.6036e-232
-9.64189e-233
-1.186e-233
-1.43452e-234
-1.72816e-235
-2.0995e-236
-2.60474e-237
-3.34401e-238
-4.52133e-239
-7.54838e-240
-7.65913e-240
-3.63323e-239
-1.65812e-238
-6.08197e-238
-1.66666e-237
-3.14181e-237
-1.16883e-224
2.36124e-225
-5.30021e-226
-3.62838e-226
-1.18993e-226
-2.87357e-227
-5.69008e-228
-9.75133e-229
-1.49809e-229
-2.11748e-230
-2.81102e-231
-3.56582e-232
-4.3877e-233
-5.30904e-234
-6.39805e-235
-7.77561e-236
-9.6501e-237
-1.2393e-237
-1.67645e-238
-2.82119e-239
-2.97261e-239
-1.41618e-238
-6.44791e-238
-2.35767e-237
-6.43515e-237
-1.20758e-236
-4.30438e-224
8.80878e-225
-1.94413e-225
-1.33712e-225
-4.38813e-226
-1.06005e-226
-2.09966e-227
-3.59935e-228
-5.5314e-229
-7.82095e-230
-1.03861e-230
-1.31796e-231
-1.62233e-232
-1.9637e-233
-2.36736e-234
-2.8781e-235
-3.57316e-236
-4.5903e-237
-6.21263e-238
-1.05422e-238
-1.15349e-238
-5.51741e-238
-2.50616e-237
-9.13481e-237
-2.48336e-236
-4.63879e-236
-1.5841e-223
3.28385e-224
-7.12638e-225
-4.92448e-225
-1.61722e-225
-3.90807e-226
-7.74308e-227
-1.32776e-227
-2.04112e-228
-2.88695e-229
-3.83518e-230
-4.86845e-231
-5.99495e-232
-7.2591e-233
-8.75448e-234
-1.0647e-234
-1.32229e-235
-1.69926e-236
-2.30102e-237
-3.93879e-238
-4.47507e-238
-2.14854e-237
-9.73598e-237
-3.53748e-236
-9.57829e-236
-1.78092e-235
-5.82584e-223
1.22332e-223
-2.61047e-224
-1.81249e-224
-5.95643e-225
-1.43989e-225
-2.85371e-226
-4.89495e-227
-7.52728e-228
-1.06502e-228
-1.41532e-229
-1.7973e-230
-2.21399e-231
-2.68185e-232
-3.23552e-233
-3.93641e-234
-4.89047e-235
-6.28681e-236
-8.51775e-237
-1.4714e-237
-1.73576e-237
-8.36252e-237
-3.78034e-236
-1.36919e-235
-3.69233e-235
-6.83331e-235
-2.14111e-222
4.55389e-223
-9.55596e-224
-6.66673e-224
-2.19244e-224
-5.30176e-225
-1.05107e-225
-1.80346e-226
-2.7742e-227
-3.9265e-228
-5.21989e-229
-6.6311e-230
-8.17156e-231
-9.90213e-232
-1.19509e-232
-1.45451e-233
-1.80769e-234
-2.32461e-235
-3.15128e-236
-5.49591e-237
-6.73093e-237
-3.25324e-236
-1.46709e-235
-5.29666e-235
-1.42257e-234
-2.62036e-234
-7.86356e-222
1.69398e-222
-3.49567e-223
-2.45059e-223
-8.06474e-224
-1.9509e-224
-3.86883e-225
-6.64033e-226
-1.0218e-226
-1.44672e-227
-1.92397e-228
-2.44504e-229
-3.01419e-230
-3.65394e-231
-4.41163e-232
-5.37129e-233
-6.6779e-234
-8.59048e-235
-1.16521e-235
-2.05255e-236
-2.60946e-236
-1.26495e-235
-5.69061e-235
-2.04791e-234
-5.47782e-234
-1.00423e-233
-2.88599e-221
6.29667e-222
-1.27787e-222
-9.00213e-223
-2.96463e-223
-7.17412e-224
-1.42314e-224
-2.44341e-225
-3.76114e-226
-5.32711e-227
-7.08706e-228
-9.00985e-229
-1.11114e-229
-1.3475e-230
-1.62755e-231
-1.98234e-232
-2.46546e-233
-3.17269e-234
-4.30596e-235
-7.66478e-236
-1.01137e-235
-4.91601e-235
-2.20613e-234
-7.91378e-234
-2.10812e-233
-3.84628e-233
-1.05843e-220
2.33879e-221
-4.66805e-222
-3.30471e-222
-1.0891e-222
-2.63644e-223
-5.23159e-224
-8.98508e-225
-1.38354e-225
-1.9603e-226
-2.6089e-227
-3.318e-228
-4.09355e-229
-4.96626e-230
-6.00073e-231
-7.31163e-232
-9.09692e-233
-1.17106e-233
-1.59033e-234
-2.86193e-235
-3.91871e-235
-1.90953e-234
-8.54812e-234
-3.05648e-233
-8.10842e-233
-1.47226e-232
-3.87898e-220
8.68049e-221
-1.70402e-221
-1.21236e-221
-3.99827e-222
-9.68234e-223
-1.92191e-223
-3.3019e-224
-5.0861e-225
-7.20895e-226
-9.59782e-227
-1.22113e-227
-1.50715e-228
-1.82919e-229
-2.21108e-230
-2.69515e-231
-3.35448e-232
-4.3198e-233
-5.87015e-234
-1.06851e-234
-1.51791e-234
-7.4133e-234
-3.31037e-233
-1.17983e-232
-3.11693e-232
-5.63191e-232
-1.42055e-219
3.21933e-220
-6.2159e-221
-4.44462e-221
-1.46685e-221
-3.55345e-222
-7.05575e-223
-1.2126e-223
-1.86849e-224
-2.64934e-225
-3.52862e-226
-4.49122e-227
-5.54542e-228
-6.73305e-229
-8.14202e-230
-9.92843e-231
-1.2362e-231
-1.59252e-232
-2.16548e-233
-3.989e-234
-5.87777e-234
-2.87652e-233
-1.28128e-232
-4.55168e-232
-1.19747e-231
-2.15306e-231
-5.1985e-219
1.19303e-219
-2.26578e-220
-1.62833e-220
-5.37779e-221
-1.30325e-221
-2.58857e-222
-4.4502e-223
-6.85974e-224
-9.7301e-225
-1.29644e-225
-1.65077e-226
-2.03907e-227
-2.47678e-228
-2.99629e-229
-3.65515e-230
-4.5528e-231
-5.86725e-232
-7.98365e-233
-1.48908e-233
-2.27528e-233
-1.11555e-232
-4.95648e-232
-1.75501e-231
-4.59774e-231
-8.22582e-231
-1.90097e-218
4.41776e-219
-8.25297e-220
-5.96138e-220
-1.97025e-220
-4.77644e-221
-9.49029e-222
-1.6321e-222
-2.5167e-223
-3.57113e-224
-4.76007e-225
-6.06349e-226
-7.49286e-227
-9.10504e-228
-1.10194e-228
-1.34478e-229
-1.67569e-230
-2.16029e-231
-2.94162e-232
-5.55837e-233
-8.80455e-233
-4.32388e-232
-1.91628e-231
-6.76301e-231
-1.76427e-230
-3.14068e-230
-6.94616e-218
1.6346e-218
-3.00387e-219
-2.18097e-219
-7.21335e-220
-1.74936e-220
-3.47696e-221
-5.98159e-222
-9.22698e-223
-1.30979e-223
-1.74655e-224
-2.22571e-225
-2.75154e-226
-3.34496e-227
-4.04992e-228
-4.94446e-229
-6.16355e-230
-7.94902e-231
-1.08319e-231
-2.0747e-232
-3.40583e-232
-1.67502e-231
-7.40454e-231
-2.60464e-230
-6.76586e-230
-1.19835e-229
-2.5362e-217
6.04329e-218
-1.09251e-218
-7.97338e-219
-2.63904e-219
-6.4025e-220
-1.27296e-220
-2.19071e-221
-3.38055e-222
-4.80062e-223
-6.40404e-224
-8.16436e-225
-1.00975e-225
-1.22804e-226
-1.48748e-227
-1.81678e-228
-2.26562e-229
-2.92304e-230
-3.98619e-231
-7.74372e-232
-1.31697e-231
-6.48522e-231
-2.85949e-230
-1.00254e-229
-2.59308e-229
-4.56938e-229
-9.25306e-217
2.23249e-217
-3.97045e-218
-2.91289e-218
-9.64812e-219
-2.34159e-219
-4.65719e-220
-8.01764e-221
-1.23769e-221
-1.7583e-222
-2.34654e-223
-2.99281e-224
-3.70301e-225
-4.50549e-226
-5.45967e-227
-6.67112e-228
-8.32257e-229
-1.07417e-229
-1.46602e-230
-2.89023e-231
-5.09052e-231
-2.50948e-230
-1.10364e-229
-3.85654e-229
-9.93206e-229
-1.74117e-228
-3.37325e-216
8.24045e-217
-1.44185e-217
-1.06339e-217
-3.52473e-218
-8.55774e-219
-1.70264e-219
-2.93224e-220
-4.52825e-221
-6.43554e-222
-8.59212e-223
-1.09632e-223
-1.35706e-224
-1.65187e-225
-2.00257e-226
-2.44796e-227
-3.0552e-228
-3.94482e-229
-5.3883e-230
-1.07872e-230
-1.96686e-230
-9.70499e-230
-4.25709e-229
-1.48263e-228
-3.80182e-228
-6.63025e-228
-1.22876e-215
3.0392e-216
-5.23196e-217
-3.87917e-217
-1.28674e-217
-3.12529e-218
-6.2202e-219
-1.07162e-219
-1.65553e-220
-2.35379e-221
-3.14388e-222
-4.0132e-223
-4.96987e-224
-6.0522e-225
-7.34031e-226
-8.97669e-227
-1.12081e-227
-1.44774e-228
-1.97919e-229
-4.02613e-230
-7.59633e-230
-3.75107e-229
-1.64112e-228
-5.69647e-228
-1.45435e-227
-2.52303e-227
-4.47238e-215
1.11997e-215
-1.897e-216
-1.41405e-216
-4.69392e-217
-1.14052e-217
-2.27075e-218
-3.91349e-219
-6.04827e-220
-8.6028e-221
-1.14954e-221
-1.46804e-222
-1.8188e-223
-2.21589e-224
-2.68869e-225
-3.28951e-226
-4.10891e-227
-5.30961e-228
-7.26516e-229
-1.50269e-229
-2.93257e-229
-1.44898e-228
-6.32277e-228
-2.18732e-227
-5.55988e-227
-9.59428e-227
-1.62652e-214
4.12372e-215
-6.87271e-216
-5.15067e-216
-1.71102e-216
-4.15901e-217
-8.28345e-218
-1.42813e-218
-2.20804e-219
-3.14193e-220
-4.20017e-221
-5.36629e-222
-6.65148e-223
-8.1073e-224
-9.84158e-225
-1.20461e-225
-1.50531e-226
-1.94598e-227
-2.66516e-228
-5.60869e-229
-1.13162e-228
-5.59385e-228
-2.43451e-227
-8.3936e-227
-2.12414e-226
-3.64585e-226
-5.91046e-214
1.51707e-214
-2.48794e-215
-1.87471e-215
-6.23224e-216
-1.51548e-216
-3.01945e-217
-5.20773e-218
-8.05493e-219
-1.14666e-219
-1.53354e-220
-1.96019e-221
-2.43075e-222
-2.96413e-223
-3.59983e-224
-4.40815e-225
-5.51088e-226
-7.12713e-227
-9.77057e-228
-2.09347e-228
-4.36471e-228
-2.15824e-227
-9.36803e-227
-3.21893e-226
-8.10988e-226
-1.38444e-225
-2.14597e-213
5.57633e-214
-8.99912e-215
-6.81818e-215
-2.2683e-215
-5.51795e-216
-1.0998e-216
-1.89759e-217
-2.93624e-218
-4.18166e-219
-5.59503e-220
-7.15489e-221
-8.87659e-222
-1.08294e-222
-1.3158e-223
-1.61198e-224
-2.0161e-225
-2.60849e-226
-3.57958e-227
-7.81428e-228
-1.68271e-227
-8.32198e-227
-3.60261e-226
-1.23367e-225
-3.09427e-225
-5.2534e-225
-7.78504e-213
2.04794e-213
-3.25242e-214
-2.4778e-214
-8.24936e-215
-2.00757e-215
-4.00284e-216
-6.90913e-217
-1.06953e-217
-1.52383e-218
-2.03979e-219
-2.60968e-220
-3.23917e-221
-3.95364e-222
-4.80601e-223
-5.89049e-224
-7.37047e-225
-9.54018e-226
-1.31056e-226
-2.91698e-227
-6.48414e-227
-3.20691e-226
-1.38456e-225
-4.72509e-225
-1.17981e-224
-1.992e-224
-2.82182e-212
7.5146e-213
-1.1745e-213
-8.9975e-214
-2.99778e-214
-7.29834e-215
-1.45574e-215
-2.51368e-216
-3.89277e-217
-5.54875e-218
-7.43092e-219
-9.51146e-220
-1.18114e-220
-1.44235e-221
-1.75413e-222
-2.15095e-223
-2.69257e-224
-3.48671e-225
-4.79504e-226
-1.08894e-226
-2.49737e-226
-1.23503e-225
-5.31782e-225
-1.80858e-224
-4.49541e-224
-7.54774e-224
-1.02193e-211
2.75493e-212
-4.23779e-213
-3.26462e-213
-1.08851e-213
-2.65115e-214
-5.29003e-215
-9.13813e-216
-1.41576e-216
-2.01892e-217
-2.70501e-218
-3.464e-219
-4.30368e-220
-5.25799e-221
-6.39764e-222
-7.84856e-223
-9.82929e-224
-1.27339e-224
-1.75322e-225
-4.06541e-226
-9.61381e-226
-4.75333e-225
-2.04116e-224
-6.918e-224
-1.71171e-223
-2.85773e-223
-3.69775e-211
1.00908e-211
-1.52777e-212
-1.18357e-212
-3.94928e-213
-9.6227e-214
-1.92082e-214
-3.31942e-215
-5.14495e-216
-7.34018e-217
-9.83917e-218
-1.2606e-218
-1.56694e-219
-1.91533e-220
-2.3316e-221
-2.86174e-222
-3.58558e-223
-4.6472e-224
-6.40602e-225
-1.51787e-225
-3.69899e-225
-1.82828e-224
-7.82956e-224
-2.64445e-223
-6.51311e-223
-1.08118e-222
-1.33681e-210
3.69277e-211
-5.50311e-212
-4.28746e-212
-1.4317e-212
-3.48986e-213
-6.96895e-214
-1.20481e-214
-1.86822e-215
-2.66657e-216
-3.5761e-217
-4.58396e-218
-5.70072e-219
-6.97166e-220
-8.49102e-221
-1.04266e-221
-1.30699e-222
-1.69474e-223
-2.33908e-224
-5.66765e-225
-1.42247e-224
-7.02763e-224
-3.00133e-223
-1.01018e-222
-2.47652e-222
-4.08735e-222
-4.8285e-210
1.35014e-210
-1.98054e-211
-1.55185e-211
-5.18592e-212
-1.26463e-212
-2.52635e-213
-4.36944e-214
-6.77838e-215
-9.67948e-216
-1.29873e-216
-1.66558e-217
-2.07239e-218
-2.53569e-219
-3.08983e-220
-3.79603e-221
-4.76061e-222
-6.17576e-223
-8.53499e-224
-2.11645e-224
-5.46722e-224
-2.69957e-223
-1.14975e-222
-3.85628e-222
-9.40998e-222
-1.54401e-221
-1.74246e-209
4.93182e-210
-7.12169e-211
-5.61225e-211
-1.87689e-211
-4.57888e-212
-9.15087e-213
-1.58335e-213
-2.45738e-214
-3.51077e-215
-4.71283e-216
-6.04707e-217
-7.52786e-218
-9.21546e-219
-1.12351e-219
-1.38097e-220
-1.7327e-221
-2.2488e-222
-3.11215e-223
-7.90407e-224
-2.10016e-223
-1.03632e-222
-4.40151e-222
-1.47109e-221
-3.57292e-221
-5.828e-221
-6.28229e-209
1.79982e-209
-2.55859e-210
-2.02796e-210
-6.78715e-211
-1.6565e-211
-3.31184e-212
-5.73284e-213
-8.90146e-214
-1.27233e-214
-1.70881e-215
-2.1937e-216
-2.7323e-217
-3.34655e-218
-4.08204e-219
-5.01998e-220
-6.30157e-221
-8.18244e-222
-1.13401e-222
-2.95213e-223
-8.06294e-223
-3.97565e-222
-1.68386e-221
-5.60804e-221
-1.35564e-220
-2.19808e-220
-2.26292e-208
6.56205e-209
-9.18404e-210
-7.32166e-210
-2.45226e-210
-5.98763e-211
-1.1976e-211
-2.07395e-212
-3.22174e-213
-4.60722e-214
-6.19087e-215
-7.95168e-216
-9.90914e-217
-1.21432e-217
-1.48196e-218
-1.8234e-219
-2.29002e-220
-2.97496e-221
-4.12924e-222
-1.10271e-222
-3.09376e-222
-1.52416e-221
-6.43745e-221
-2.13637e-220
-5.13978e-220
-8.28362e-220
-8.14355e-208
2.39021e-208
-3.29364e-209
-2.6411e-209
-8.85258e-210
-2.16245e-210
-4.32694e-211
-7.49653e-212
-1.16508e-212
-1.66693e-213
-2.24105e-214
-2.87995e-215
-3.59081e-216
-4.4027e-217
-5.3759e-218
-6.61786e-219
-8.3155e-220
-1.08079e-220
-1.50251e-221
-4.11935e-222
-1.18638e-221
-5.83929e-221
-2.45935e-220
-8.13273e-220
-1.94726e-219
-3.11921e-219
-2.92783e-207
8.69786e-208
-1.18013e-208
-9.51882e-209
-3.19298e-209
-7.80299e-210
-1.56199e-210
-2.70739e-211
-4.2097e-212
-6.02599e-213
-8.10565e-214
-1.0422e-214
-1.30015e-215
-1.59497e-216
-1.94857e-217
-2.39998e-218
-3.01713e-219
-3.92339e-220
-5.46336e-221
-1.539e-221
-4.54681e-221
-2.23559e-220
-9.38913e-220
-3.09375e-219
-7.37187e-219
-1.17357e-218
-1.05163e-206
3.16202e-207
-4.22459e-208
-3.42766e-208
-1.15064e-208
-2.81316e-209
-5.63373e-210
-9.76932e-211
-1.51976e-211
-2.17656e-212
-2.92926e-213
-3.76839e-214
-4.70362e-215
-5.77336e-216
-7.05709e-217
-8.69652e-218
-1.09384e-218
-1.42311e-219
-1.98515e-220
-5.75028e-221
-1.7415e-220
-8.55311e-220
-3.58198e-219
-1.17603e-218
-2.78871e-218
-4.4118e-218
-3.77358e-206
1.14838e-206
-1.51092e-207
-1.23318e-207
-4.14281e-208
-1.01331e-208
-2.03016e-209
-3.52207e-210
-5.48176e-211
-7.85489e-212
-1.05769e-212
-1.36142e-213
-1.70023e-214
-2.08807e-215
-2.55375e-216
-3.14869e-217
-3.96241e-218
-5.15782e-219
-7.20803e-220
-2.14872e-220
-6.66614e-220
-3.27004e-219
-1.36556e-218
-4.4672e-218
-1.05413e-217
-1.65713e-217
-1.35275e-205
4.16654e-206
-5.39875e-207
-4.43261e-207
-1.49025e-207
-3.6467e-208
-7.30933e-209
-1.26867e-209
-1.97553e-210
-2.83224e-211
-3.81578e-212
-4.91426e-213
-6.14069e-214
-7.54565e-215
-9.2336e-216
-1.13909e-216
-1.4342e-217
-1.86785e-218
-2.61534e-219
-8.02987e-220
-2.55007e-219
-1.24932e-218
-5.20217e-218
-1.69563e-217
-3.98153e-217
-6.21908e-217
-4.84452e-205
1.51017e-205
-1.92725e-206
-1.59183e-206
-5.35583e-207
-1.31118e-207
-2.62925e-208
-4.5657e-209
-7.11316e-210
-1.02033e-210
-1.3754e-211
-1.77234e-212
-2.21592e-213
-2.72446e-214
-3.33578e-215
-4.11738e-216
-5.18685e-217
-6.75871e-218
-9.48262e-219
-3.00105e-219
-9.74884e-219
-4.76964e-218
-1.98035e-217
-6.43136e-217
-1.50268e-216
-2.33196e-216
-1.73318e-204
5.46801e-205
-6.87341e-206
-5.7113e-206
-1.92306e-206
-4.71007e-207
-9.44911e-208
-1.64162e-208
-2.55888e-209
-3.67249e-210
-4.95327e-211
-6.38643e-212
-7.98939e-213
-9.82857e-214
-1.20408e-214
-1.48703e-215
-1.87427e-216
-2.44358e-217
-3.4357e-218
-1.12169e-218
-3.72454e-218
-1.81964e-217
-7.5332e-217
-2.43751e-216
-5.6668e-216
-8.73651e-216
-6.19433e-204
1.9778e-204
-2.44901e-205
-2.04723e-205
-6.8985e-206
-1.69039e-206
-3.39272e-207
-5.89715e-208
-9.19696e-209
-1.32066e-209
-1.78225e-210
-2.29924e-211
-2.87802e-212
-3.54262e-213
-4.3425e-214
-5.36597e-215
-6.767e-216
-8.82727e-217
-1.24391e-217
-4.19274e-218
-1.42202e-217
-6.93692e-217
-2.86348e-216
-9.2312e-216
-2.13532e-215
-3.27017e-215
-2.21154e-203
7.14633e-204
-8.71746e-205
-7.3314e-205
-2.47232e-205
-6.06092e-206
-1.21702e-206
-2.11645e-207
-3.30247e-208
-4.74488e-209
-6.40695e-210
-8.27033e-211
-1.03583e-211
-1.27578e-212
-1.56476e-213
-1.93465e-214
-2.44112e-215
-3.1861e-216
-4.50033e-217
-1.56729e-217
-5.42563e-217
-2.64259e-216
-1.08763e-215
-3.4933e-215
-8.03961e-215
-1.22296e-214
-7.88752e-203
2.57941e-203
-3.10004e-204
-2.62296e-204
-8.85198e-205
-2.17108e-205
-4.36154e-206
-7.58868e-207
-1.18476e-207
-1.70318e-208
-2.30112e-209
-2.97214e-210
-3.72475e-211
-4.59035e-212
-5.63344e-213
-6.96916e-214
-8.79847e-215
-1.14901e-215
-1.62699e-216
-5.85899e-217
-2.06871e-216
-1.00593e-215
-4.128e-215
-1.32091e-214
-3.02449e-214
-4.56945e-214
-2.81012e-202
9.30019e-203
-1.10133e-203
-9.37512e-204
-3.16632e-204
-7.76954e-205
-1.56158e-205
-2.71839e-206
-4.24631e-207
-6.10787e-208
-8.25706e-209
-1.06713e-209
-1.33817e-210
-1.65016e-211
-2.02635e-212
-2.50828e-213
-3.16845e-214
-4.1401e-215
-5.87776e-216
-2.19034e-216
-7.88224e-216
-3.82632e-215
-1.56554e-214
-4.99081e-214
-1.13687e-213
-1.70575e-213
-1.0001e-201
3.34959e-202
-3.90874e-203
-3.34763e-203
-1.13147e-203
-2.77774e-204
-5.5856e-205
-9.72841e-206
-1.52048e-206
-2.18832e-207
-2.9601e-208
-3.82795e-209
-4.80318e-210
-5.92667e-211
-7.28224e-212
-9.01955e-213
-1.14e-213
-1.49047e-214
-2.12188e-215
-8.18857e-216
-3.00121e-215
-1.45433e-214
-5.93268e-214
-1.88418e-213
-4.26979e-213
-6.36159e-213
-3.55538e-201
1.20507e-201
-1.38587e-202
-1.19417e-202
-4.03928e-203
-9.92109e-204
-1.99595e-204
-3.47816e-205
-5.43915e-206
-7.8328e-207
-1.06018e-207
-1.37185e-208
-1.72244e-209
-2.12666e-210
-2.6147e-211
-3.24044e-212
-4.09802e-213
-5.36107e-214
-7.65442e-215
-3.06131e-215
-1.14192e-214
-5.52349e-214
-2.24645e-213
-7.10761e-213
-1.60227e-212
-2.37032e-212
-1.26256e-200
4.33062e-201
-4.90873e-202
-4.2556e-202
-1.44055e-202
-3.53992e-203
-7.12523e-204
-1.24231e-204
-1.94384e-205
-2.80095e-206
-3.79346e-207
-4.91179e-208
-6.17097e-209
-7.62404e-210
-9.37954e-211
-1.16313e-211
-1.47182e-212
-1.92661e-213
-2.75923e-214
-1.14447e-214
-4.34174e-214
-2.09617e-213
-8.49962e-213
-2.679e-212
-6.00749e-212
-8.82335e-212
-4.4785e-200
1.55452e-200
-1.7369e-201
-1.51501e-201
-5.13228e-202
-1.2618e-202
-2.54104e-203
-4.43281e-204
-6.94001e-205
-1.00062e-205
-1.35604e-206
-1.75694e-207
-2.20878e-208
-2.73064e-209
-3.36154e-210
-4.17115e-211
-5.28128e-212
-6.91748e-213
-9.93912e-214
-4.27847e-214
-1.64959e-213
-7.94873e-213
-3.21332e-212
-1.00894e-211
-2.25048e-211
-3.28127e-211
-1.5868e-199
5.57375e-200
-6.13948e-201
-5.38793e-201
-1.82661e-201
-4.49305e-202
-9.05284e-203
-1.58012e-203
-2.4753e-204
-3.57113e-205
-4.84269e-206
-6.27847e-207
-7.89833e-208
-9.77088e-209
-1.20362e-209
-1.49444e-210
-1.89333e-211
-2.48146e-212
-3.5776e-213
-1.59939e-213
-6.26277e-213
-3.0118e-212
-1.21383e-211
-3.79661e-211
-8.42325e-211
-1.21907e-210
-5.6158e-199
1.99616e-199
-2.16789e-200
-1.91416e-200
-6.49429e-201
-1.59824e-201
-3.2219e-202
-5.6268e-203
-8.81978e-204
-1.27324e-204
-1.72771e-205
-2.24144e-206
-2.82162e-207
-3.49291e-208
-4.30554e-209
-5.34929e-210
-6.78123e-211
-8.89343e-212
-1.28683e-212
-5.9785e-213
-2.37593e-212
-1.14027e-211
-4.58148e-211
-1.42746e-210
-3.14992e-210
-4.52463e-210
-1.98517e-198
7.14062e-199
-7.64698e-200
-6.79326e-200
-2.30653e-200
-5.67925e-201
-1.14548e-201
-2.00163e-202
-3.13939e-203
-4.53496e-204
-6.15777e-205
-7.99414e-206
-1.00702e-206
-1.24744e-207
-1.53869e-208
-1.91294e-209
-2.42652e-210
-3.18441e-211
-4.62527e-212
-2.23457e-212
-9.00681e-212
-4.31356e-211
-1.72781e-210
-5.36243e-210
-1.17688e-209
-1.67766e-209
-7.00924e-198
2.55129e-198
-2.69454e-199
-2.40833e-199
-8.18323e-200
-2.01594e-200
-4.06824e-201
-7.11303e-202
-1.11631e-202
-1.6136e-203
-2.19249e-204
-2.84828e-205
-3.59045e-206
-4.45072e-207
-5.49357e-208
-6.83423e-209
-8.67454e-210
-1.13916e-210
-1.66127e-211
-8.35124e-212
-3.41174e-211
-1.63046e-210
-6.51061e-210
-2.01274e-209
-4.39313e-209
-6.21418e-209
-2.47188e-197
9.10457e-198
-9.48461e-199
-8.52877e-199
-2.90016e-199
-7.14824e-200
-1.44332e-200
-2.52503e-201
-3.96524e-202
-5.73546e-203
-7.79841e-204
-1.0138e-204
-1.27887e-205
-1.58639e-206
-1.95944e-207
-2.43926e-208
-3.09808e-209
-4.07124e-210
-5.96255e-211
-3.12071e-211
-1.29135e-210
-6.15783e-210
-2.45122e-209
-7.54813e-209
-1.6384e-208
-2.29942e-208
-8.70679e-197
3.24511e-197
-3.33494e-198
-3.01705e-198
-1.0267e-198
-2.53191e-199
-5.11508e-200
-8.95398e-201
-1.40701e-201
-2.03651e-202
-2.77094e-203
-3.6048e-204
-4.55054e-205
-5.64879e-206
-6.98204e-207
-8.69765e-208
-1.1054e-208
-1.45364e-209
-2.13853e-210
-1.16598e-210
-4.88392e-210
-2.32371e-209
-9.22089e-209
-2.8282e-208
-6.1047e-208
-8.49964e-208
-3.06306e-196
1.15521e-196
-1.17135e-197
-1.06611e-197
-3.63067e-198
-8.95821e-199
-1.81079e-199
-3.17173e-200
-4.98724e-201
-7.2235e-202
-9.83541e-203
-1.28044e-203
-1.61754e-204
-2.00938e-205
-2.4854e-206
-3.09825e-207
-3.94022e-208
-5.18522e-209
-7.66463e-210
-4.35566e-210
-1.84565e-209
-8.76136e-209
-3.46569e-208
-1.05876e-207
-2.2725e-207
-3.13852e-207
-1.07625e-195
4.10725e-196
-4.10973e-197
-3.76298e-197
-1.28246e-197
-3.16599e-198
-6.40329e-199
-1.12228e-199
-1.76585e-200
-2.55943e-201
-3.48738e-202
-4.54344e-203
-5.74382e-204
-7.14045e-205
-8.83839e-206
-1.10254e-206
-1.40311e-207
-1.8478e-208
-2.74513e-209
-1.6268e-209
-6.96914e-209
-3.30059e-208
-1.30145e-207
-3.96e-207
-8.45152e-207
-1.15767e-206
-3.77679e-195
1.45844e-195
-1.44033e-196
-1.3267e-196
-4.52489e-197
-1.11766e-197
-2.2618e-198
-3.96667e-199
-6.24555e-200
-9.05874e-201
-1.23521e-201
-1.61046e-202
-2.03747e-203
-2.53478e-204
-3.13983e-205
-3.91956e-206
-4.99146e-207
-6.57833e-208
-9.82504e-209
-6.07459e-209
-2.62939e-208
-1.24233e-207
-4.88298e-207
-1.47979e-206
-3.14016e-206
-4.26555e-206
-1.32366e-194
5.17208e-195
-5.0423e-196
-4.67214e-196
-1.59468e-196
-3.94105e-197
-7.98017e-198
-1.40044e-198
-2.20652e-199
-3.20271e-200
-4.37033e-201
-5.70233e-202
-7.21978e-203
-8.98878e-204
-1.11427e-204
-1.39198e-205
-1.77388e-206
-2.33962e-207
-3.51404e-208
-2.26775e-208
-9.91227e-208
-4.67204e-207
-1.83044e-206
-5.52472e-206
-1.1656e-205
-1.56996e-205
-4.63306e-194
1.83178e-194
-1.76323e-195
-1.64344e-195
-5.61351e-196
-1.38808e-196
-2.81238e-197
-4.93867e-198
-7.78676e-199
-1.13106e-199
-1.54458e-200
-2.0169e-201
-2.55559e-202
-3.18422e-203
-3.95021e-204
-4.93836e-205
-6.29764e-206
-8.31264e-207
-1.25599e-207
-8.46361e-208
-3.7336e-207
-1.75547e-206
-6.85547e-206
-2.06072e-205
-4.32241e-205
-5.77191e-205
-1.61952e-193
6.47899e-194
-6.15888e-195
-5.77408e-195
-1.97371e-195
-4.88322e-196
-9.8999e-197
-1.73963e-197
-2.74482e-198
-3.98994e-199
-5.45289e-200
-7.12591e-201
-9.03628e-202
-1.12678e-202
-1.39891e-203
-1.75016e-204
-2.23348e-205
-2.95048e-206
-4.48615e-207
-3.15783e-207
-1.40513e-206
-6.59018e-206
-2.56522e-205
-7.67933e-205
-1.6013e-204
-2.11963e-204
-5.6536e-193
2.28853e-193
-2.14882e-194
-2.02625e-194
-6.93129e-195
-1.71587e-195
-3.48079e-196
-6.12066e-197
-9.66431e-198
-1.4059e-198
-1.92289e-199
-2.51487e-200
-3.19163e-201
-3.98299e-202
-4.94879e-203
-6.19604e-204
-7.91287e-205
-1.04617e-205
-1.60131e-206
-1.17783e-206
-5.28364e-206
-2.47179e-205
-9.58989e-205
-2.85902e-204
-5.92636e-204
-7.77508e-204
-1.97094e-192
8.07257e-193
-7.48861e-194
-7.102e-194
-2.43119e-194
-6.02199e-195
-1.22238e-195
-2.15094e-196
-3.39878e-197
-4.94815e-198
-6.77315e-199
-8.8655e-200
-1.12604e-200
-1.40638e-201
-1.74879e-202
-2.19123e-203
-2.80045e-204
-3.70562e-205
-5.71212e-206
-4.39166e-206
-1.98506e-205
-9.26258e-205
-3.58179e-204
-1.0634e-203
-2.19112e-203
-2.8487e-203
-6.86162e-192
2.84358e-192
-2.60676e-193
-2.4862e-193
-8.51712e-194
-2.1109e-194
-4.2876e-195
-7.54992e-196
-1.19389e-196
-1.73951e-197
-2.38302e-198
-3.12176e-199
-3.96837e-200
-4.96041e-201
-6.1731e-202
-7.74091e-203
-9.90049e-204
-1.31119e-204
-2.03631e-205
-1.63687e-205
-7.45137e-205
-3.46781e-204
-1.33654e-203
-3.95148e-203
-8.09284e-203
-1.0425e-202
-2.38546e-191
1.00025e-191
-9.06354e-193
-8.69271e-193
-2.98008e-193
-7.39024e-194
-1.50207e-194
-2.64686e-195
-4.18877e-196
-6.10801e-197
-8.37453e-198
-1.09799e-198
-1.39694e-199
-1.74762e-200
-2.17665e-201
-2.73164e-202
-3.49638e-203
-4.63463e-204
-7.25471e-205
-6.09853e-205
-2.79456e-204
-1.29711e-203
-4.98253e-203
-1.4669e-202
-2.98599e-202
-3.81056e-202
-8.28135e-191
3.5134e-191
-3.14764e-192
-3.03549e-192
-1.04139e-192
-2.58408e-193
-5.25567e-194
-9.26804e-195
-1.46786e-195
-2.14217e-196
-2.93956e-197
-3.85738e-198
-4.91184e-199
-6.15014e-200
-7.66638e-201
-9.62887e-202
-1.23341e-202
-1.63644e-203
-2.58305e-204
-2.27119e-204
-1.04714e-203
-4.84726e-203
-1.85568e-202
-5.44015e-202
-1.10058e-201
-1.39116e-201
-2.87081e-190
1.2323e-190
-1.09184e-191
-1.05864e-191
-3.63453e-192
-9.02412e-193
-1.83663e-193
-3.24121e-194
-5.1375e-195
-7.50386e-196
-1.03059e-196
-1.35356e-197
-1.72508e-198
-2.16186e-199
-2.69713e-200
-3.39034e-201
-4.34627e-202
-5.77192e-203
-9.19154e-204
-8.45451e-204
-3.92013e-203
-1.80969e-202
-6.9046e-202
-2.01554e-201
-4.05229e-201
-5.0726e-201
-9.93738e-190
4.31585e-190
-3.78286e-191
-3.68731e-191
-1.26684e-191
-3.14735e-192
-6.41009e-193
-1.13209e-193
-1.7959e-194
-2.62534e-195
-3.60884e-196
-4.74399e-197
-6.05152e-198
-7.59043e-199
-9.478e-200
-1.1924e-200
-1.52983e-201
-2.03361e-202
-3.26884e-203
-3.1457e-203
-1.46622e-202
-6.74992e-202
-2.56654e-201
-7.45991e-201
-1.49044e-200
-1.84733e-200
-3.43474e-189
1.50925e-189
-1.30906e-190
-1.28263e-190
-4.40984e-191
-1.09628e-191
-2.23433e-192
-3.94915e-193
-6.26996e-194
-9.17376e-195
-1.26217e-195
-1.66069e-196
-2.12034e-197
-2.66194e-198
-3.32683e-199
-4.18895e-200
-5.37872e-201
-7.15711e-202
-1.16187e-202
-1.16985e-202
-5.47896e-202
-2.51521e-201
-9.53082e-201
-2.75826e-200
-5.47596e-200
-6.71905e-200
-1.18538e-188
5.26983e-189
-4.52454e-190
-4.45572e-190
-1.53302e-190
-3.81349e-191
-7.7779e-192
-1.37583e-192
-2.18624e-193
-3.20159e-194
-4.40894e-195
-5.80639e-196
-7.42035e-197
-9.32427e-198
-1.16637e-198
-1.4699e-199
-1.88895e-200
-2.51609e-201
-4.1275e-202
-4.34825e-202
-2.04546e-201
-9.36329e-201
-3.53573e-200
-1.0188e-199
-2.00971e-199
-2.4407e-199
-4.08465e-188
1.8372e-188
-1.56193e-189
-1.54579e-189
-5.32214e-190
-1.32478e-190
-2.70398e-191
-4.78696e-192
-7.61324e-193
-1.11592e-193
-1.53818e-194
-2.02763e-195
-2.59368e-196
-3.26221e-197
-4.08442e-198
-5.15185e-199
-6.62617e-200
-8.83549e-201
-1.46552e-201
-1.61533e-201
-7.62908e-201
-3.48221e-200
-1.31036e-199
-3.75919e-199
-7.36758e-199
-8.85432e-199
-1.40531e-187
6.39482e-188
-5.38536e-189
-5.35536e-189
-1.84514e-189
-4.59593e-190
-9.38774e-191
-1.66333e-191
-2.64774e-192
-3.88455e-193
-5.35953e-194
-7.07176e-195
-9.05468e-196
-1.13994e-196
-1.42858e-197
-1.80354e-198
-2.32166e-199
-3.09916e-200
-5.2009e-201
-5.99732e-201
-2.84275e-200
-1.29375e-199
-4.85129e-199
-1.38561e-198
-2.69794e-198
-3.2079e-198
-4.82726e-187
2.2223e-187
-1.85453e-188
-1.85279e-188
-6.38807e-189
-1.59223e-189
-3.25482e-190
-5.77185e-191
-9.19614e-192
-1.35046e-192
-1.86505e-193
-2.4633e-194
-3.15711e-195
-3.97851e-196
-4.99061e-197
-6.30627e-198
-8.12502e-199
-1.08583e-199
-1.84484e-200
-2.22533e-200
-1.05824e-199
-4.80187e-199
-1.79423e-198
-5.10183e-198
-9.86846e-198
-1.16065e-197
-1.65548e-186
7.71019e-187
-6.37841e-188
-6.40106e-188
-2.2085e-188
-5.50845e-189
-1.12692e-189
-2.00014e-190
-3.18973e-191
-4.68868e-192
-6.48172e-193