/*--------------------------------*- C++ -*----------------------------------*\
  =========                 |
  \\      /  F ield         | OpenFOAM: The Open Source CFD Toolbox
   \\    /   O peration     | Website:  https://openfoam.org
    \\  /    A nd           | Version:  11
     \\/     M anipulation  |
\*---------------------------------------------------------------------------*/
FoamFile
{
    format      ascii;
    class       volScalarField;
    location    "3";
    object      C;
}
// * * * * * * * * * * * * * * * * * * * * * * * * * * * * * * * * * * * * * //

dimensions      [0 0 0 1 0 0 0];

internalField   nonuniform List<scalar> 
146575
(
-1.61146e-190
-2.37335e-191
-8.81546e-192
-2.6179e-192
-5.98616e-193
-1.0921e-193
-1.65373e-194
-2.14873e-195
-2.46005e-196
-2.5349e-197
-2.39142e-198
-2.09456e-199
-1.72302e-200
-1.34418e-201
-1.00271e-202
-7.2035e-204
-5.01507e-205
-3.40262e-206
-2.2614e-207
-1.47926e-208
-9.56734e-210
-6.14534e-211
-3.9376e-212
-2.52802e-213
-1.63843e-214
-1.81265e-215
-1.14091e-214
-1.67931e-213
-2.40711e-212
-3.3195e-211
-4.37482e-210
-5.46859e-209
-6.42723e-208
-7.02947e-207
-7.06604e-206
-6.42893e-205
-5.19315e-204
-3.63215e-203
-2.12613e-202
-9.91979e-202
-3.41539e-201
-7.53479e-201
-1.24423e-189
-1.58434e-190
-5.98136e-191
-1.79786e-191
-4.15503e-192
-7.66205e-193
-1.17267e-193
-1.53941e-194
-1.77956e-195
-1.85018e-196
-1.75982e-197
-1.55292e-198
-1.28616e-199
-1.00961e-200
-7.57422e-202
-5.4699e-203
-3.82677e-204
-2.60833e-205
-1.74109e-206
-1.14368e-207
-7.42698e-209
-4.78939e-210
-3.08067e-211
-1.98538e-212
-1.29098e-213
-1.33938e-214
-7.57436e-214
-1.11235e-212
-1.59323e-211
-2.19633e-210
-2.89488e-209
-3.62119e-208
-4.26227e-207
-4.67338e-206
-4.71617e-205
-4.3164e-204
-3.51753e-203
-2.49267e-202
-1.48815e-201
-7.15384e-201
-2.57766e-200
-6.07806e-200
-9.26177e-189
-1.18619e-189
-4.482e-190
-1.3498e-190
-3.12564e-191
-5.77573e-192
-8.85968e-193
-1.16589e-193
-1.35128e-194
-1.40871e-195
-1.34362e-196
-1.18895e-197
-9.87444e-199
-7.77231e-200
-5.84639e-201
-4.23302e-202
-2.96886e-203
-2.02848e-204
-1.3572e-205
-8.93538e-207
-5.81533e-208
-3.7581e-209
-2.42233e-210
-1.56428e-211
-1.01914e-212
-1.05267e-213
-5.87657e-213
-8.61103e-212
-1.23079e-210
-1.69308e-209
-2.22673e-208
-2.77926e-207
-3.26393e-206
-3.57055e-205
-3.59484e-204
-3.28232e-203
-2.66845e-202
-1.88656e-201
-1.1239e-200
-5.39468e-200
-1.94377e-199
-4.59917e-199
-6.81678e-188
-8.79281e-189
-3.33126e-189
-1.00536e-189
-2.33242e-190
-4.31772e-191
-6.63516e-192
-8.74777e-193
-1.01584e-193
-1.06113e-194
-1.01419e-195
-8.99331e-197
-7.48501e-198
-5.90417e-199
-4.45064e-200
-3.22926e-201
-2.26957e-202
-1.55385e-203
-1.04171e-204
-6.87156e-206
-4.48057e-207
-2.90083e-208
-1.8731e-209
-1.21169e-210
-7.90764e-212
-8.16321e-213
-4.53078e-212
-6.62498e-211
-9.44963e-210
-1.29718e-208
-1.70244e-207
-2.12035e-206
-2.48478e-205
-2.71236e-204
-2.7249e-203
-2.48262e-202
-2.01392e-201
-1.42071e-200
-8.44545e-200
-4.04539e-199
-1.45501e-198
-3.43951e-198
-5.00587e-187
-6.5012e-188
-2.47041e-188
-7.47163e-189
-1.73653e-189
-3.22008e-190
-4.95669e-191
-6.54604e-192
-7.61496e-193
-7.96893e-194
-7.63061e-195
-6.7794e-196
-5.65339e-197
-4.46816e-198
-3.37481e-199
-2.45347e-200
-1.72769e-201
-1.18512e-202
-7.95996e-204
-5.26034e-205
-3.4361e-206
-2.22848e-207
-1.44138e-208
-9.3395e-210
-6.10486e-211
-6.30716e-212
-3.48894e-211
-5.09084e-210
-7.24624e-209
-9.92614e-208
-1.29995e-206
-1.61558e-205
-1.88916e-204
-2.05771e-203
-2.06272e-202
-1.87521e-201
-1.51785e-200
-1.06841e-199
-6.33729e-199
-3.02908e-198
-1.08731e-197
-2.5665e-197
-3.67001e-186
-4.7987e-187
-1.829e-187
-5.54368e-188
-1.29078e-188
-2.39754e-189
-3.69669e-190
-4.89027e-191
-5.69866e-192
-5.97419e-193
-5.73105e-194
-5.10131e-195
-4.26214e-196
-3.3751e-197
-2.55416e-198
-1.86045e-199
-1.3126e-200
-9.02077e-202
-6.0701e-203
-4.01865e-204
-2.62964e-205
-1.70837e-206
-1.10682e-207
-7.18332e-209
-4.70291e-210
-4.86431e-211
-2.68348e-210
-3.9073e-209
-5.5499e-208
-7.58627e-207
-9.91381e-206
-1.22942e-204
-1.43448e-203
-1.55904e-202
-1.5594e-201
-1.41452e-200
-1.14242e-199
-8.02368e-199
-4.74878e-198
-2.2649e-197
-8.11376e-197
-1.91221e-196
-2.68634e-185
-3.53646e-186
-1.352e-186
-4.10683e-187
-9.57968e-188
-1.78239e-188
-2.75281e-189
-3.64781e-190
-4.25821e-191
-4.47209e-192
-4.29799e-193
-3.83292e-194
-3.20854e-195
-2.54569e-196
-1.93023e-197
-1.4087e-198
-9.95779e-200
-6.85634e-201
-4.62216e-202
-3.06558e-203
-2.00952e-204
-1.30774e-205
-8.4867e-207
-5.51687e-208
-3.61764e-209
-3.74648e-210
-2.06155e-209
-2.99533e-208
-4.24554e-207
-5.79087e-206
-7.55118e-205
-9.34383e-204
-1.08784e-202
-1.17968e-201
-1.17734e-200
-1.06558e-199
-8.58689e-199
-6.01745e-198
-3.55349e-197
-1.69113e-196
-6.04601e-196
-1.42266e-195
-1.96316e-184
-2.60214e-185
-9.97851e-186
-3.0377e-186
-7.0988e-187
-1.32306e-187
-2.04685e-188
-2.71696e-189
-3.17718e-190
-3.34279e-191
-3.21862e-192
-2.8758e-193
-2.41199e-194
-1.91743e-195
-1.4567e-196
-1.06518e-197
-7.54405e-199
-5.20422e-200
-3.51491e-201
-2.33544e-202
-1.5336e-203
-9.99746e-205
-6.49881e-206
-4.23152e-207
-2.77923e-208
-2.88196e-209
-1.58188e-208
-2.29347e-207
-3.24378e-206
-4.41491e-205
-5.74439e-204
-7.09246e-203
-8.23894e-202
-8.91464e-201
-8.87706e-200
-8.01637e-199
-6.44543e-198
-4.50661e-197
-2.65532e-196
-1.26091e-195
-4.49873e-195
-1.05691e-194
-1.43234e-183
-1.91162e-184
-7.35309e-185
-2.24339e-185
-5.25227e-186
-9.80596e-187
-1.51962e-187
-2.02062e-188
-2.36708e-189
-2.49502e-190
-2.40685e-191
-2.15462e-192
-1.81064e-193
-1.44222e-194
-1.09783e-195
-8.04343e-197
-5.70772e-198
-3.94495e-199
-2.66937e-200
-1.77687e-201
-1.16888e-202
-7.63305e-204
-4.9702e-205
-3.24152e-206
-2.13244e-207
-2.21422e-208
-1.21237e-207
-1.75394e-206
-2.47535e-205
-3.36171e-204
-4.3644e-203
-5.37665e-202
-6.2318e-201
-6.72774e-200
-6.68427e-199
-6.02253e-198
-4.83134e-197
-3.37039e-196
-1.98136e-195
-9.38792e-195
-3.34257e-194
-7.84037e-194
-1.04334e-182
-1.40209e-183
-5.40986e-184
-1.65417e-184
-3.88e-185
-7.25656e-186
-1.12648e-186
-1.50048e-187
-1.76091e-188
-1.85951e-189
-1.7972e-190
-1.61198e-191
-1.3573e-192
-1.08327e-193
-8.26237e-195
-6.0655e-196
-4.31256e-197
-2.98639e-198
-2.02456e-199
-1.35012e-200
-8.89741e-202
-5.82032e-203
-3.79628e-204
-2.47999e-205
-1.63411e-206
-1.69911e-207
-9.28055e-207
-1.3397e-205
-1.88662e-204
-2.55654e-203
-3.31171e-202
-4.07066e-201
-4.70745e-200
-5.07056e-199
-5.02633e-198
-4.51841e-197
-3.61643e-196
-2.51708e-195
-1.47636e-194
-6.97952e-194
-2.47991e-193
-5.80758e-193
-7.58732e-182
-1.02672e-182
-3.9738e-183
-1.21778e-183
-2.86176e-184
-5.3616e-185
-8.33762e-186
-1.11254e-186
-1.308e-187
-1.38382e-188
-1.34001e-189
-1.20426e-190
-1.01602e-191
-8.12514e-193
-6.20968e-194
-4.56768e-195
-3.254e-196
-2.25771e-197
-1.53346e-198
-1.02451e-199
-6.76375e-201
-4.43232e-202
-2.89589e-203
-1.89494e-204
-1.25065e-205
-1.30223e-206
-7.09556e-206
-1.02204e-204
-1.43612e-203
-1.94176e-202
-2.50969e-201
-3.07788e-200
-3.55127e-199
-3.81644e-198
-3.77447e-197
-3.38525e-196
-2.70323e-195
-1.87714e-194
-1.09848e-193
-5.18141e-193
-1.83717e-192
-4.29543e-192
-5.50843e-181
-7.50617e-182
-2.91424e-182
-8.95077e-183
-2.10739e-183
-3.95527e-184
-6.16148e-185
-8.2363e-186
-9.70108e-187
-1.02828e-187
-9.97654e-189
-8.98361e-190
-7.59454e-191
-6.08567e-192
-4.66042e-193
-3.43497e-194
-2.45191e-195
-1.70451e-196
-1.15993e-197
-7.76391e-199
-5.13497e-200
-3.3709e-201
-2.20618e-202
-1.44605e-203
-9.55956e-205
-9.96811e-206
-5.41837e-205
-7.78729e-204
-1.09182e-202
-1.47294e-201
-1.89945e-200
-2.32417e-199
-2.67548e-198
-2.86862e-197
-2.83051e-196
-2.53273e-195
-2.01777e-194
-1.39789e-193
-8.16134e-193
-3.84089e-192
-1.35899e-191
-3.17224e-191
-3.99243e-180
-5.47862e-181
-2.13372e-181
-6.56827e-182
-1.5494e-182
-2.91319e-183
-4.54618e-184
-6.08802e-185
-7.18402e-186
-7.62929e-187
-7.41658e-188
-6.69178e-189
-5.66855e-190
-4.55161e-191
-3.49274e-192
-2.57954e-193
-1.84498e-194
-1.2851e-195
-8.76196e-197
-5.87572e-198
-3.89322e-199
-2.56028e-200
-1.67854e-201
-1.10206e-202
-7.2976e-204
-7.62069e-205
-4.13252e-204
-5.92603e-203
-8.29011e-202
-1.11587e-200
-1.43571e-199
-1.7527e-198
-2.01296e-197
-2.15325e-196
-2.11968e-195
-1.89225e-194
-1.50397e-193
-1.0395e-192
-6.05474e-192
-2.84296e-191
-1.00376e-190
-2.3392e-190
-2.88875e-179
-3.99211e-180
-1.55968e-180
-4.81209e-181
-1.13731e-181
-2.14224e-182
-3.34905e-183
-4.49305e-184
-5.31183e-185
-5.65193e-186
-5.50521e-187
-4.97724e-188
-4.22481e-189
-3.39933e-190
-2.61389e-191
-1.93441e-192
-1.38635e-193
-9.67555e-195
-6.60961e-196
-4.44071e-197
-2.94778e-198
-1.94199e-199
-1.2754e-200
-8.38796e-202
-5.56363e-203
-5.81872e-204
-3.14791e-203
-4.50395e-202
-6.28658e-201
-8.44267e-200
-1.08376e-198
-1.31998e-197
-1.51244e-196
-1.61406e-195
-1.58515e-194
-1.41173e-193
-1.1194e-192
-7.71863e-192
-4.48526e-191
-2.10116e-190
-7.40262e-190
-1.72228e-189
-2.08661e-178
-2.90407e-179
-1.13819e-179
-3.51968e-180
-8.33463e-181
-1.57277e-181
-2.46322e-182
-3.31071e-183
-3.92143e-184
-4.18063e-185
-4.08024e-186
-3.69645e-187
-3.14413e-188
-2.53506e-189
-1.95337e-190
-1.44857e-191
-1.04026e-192
-7.27457e-194
-4.9791e-195
-3.35158e-196
-2.22891e-197
-1.47104e-198
-9.67795e-200
-6.3758e-201
-4.23611e-202
-4.43718e-203
-2.39488e-202
-3.41878e-201
-4.76111e-200
-6.37937e-199
-8.17005e-198
-9.92752e-197
-1.13482e-195
-1.2082e-194
-1.18374e-193
-1.05172e-192
-8.31954e-192
-5.72291e-191
-3.31766e-190
-1.55057e-189
-5.45102e-189
-1.26611e-188
-1.5046e-177
-2.10901e-178
-8.29211e-179
-2.5701e-179
-6.0979e-180
-1.15281e-180
-1.80878e-181
-2.43562e-182
-2.89043e-183
-3.08755e-184
-3.01949e-185
-2.74111e-186
-2.3364e-187
-1.88776e-188
-1.45764e-189
-1.08319e-190
-7.79459e-192
-5.4617e-193
-3.74559e-194
-2.52607e-195
-1.68304e-196
-1.11278e-197
-7.33389e-199
-4.83987e-200
-3.2211e-201
-3.37932e-202
-1.81969e-201
-2.59174e-200
-3.60111e-199
-4.81395e-198
-6.15083e-197
-7.45632e-196
-8.50313e-195
-9.0313e-194
-8.82726e-193
-7.82397e-192
-6.17416e-191
-4.23692e-190
-2.45032e-189
-1.14252e-188
-4.00775e-188
-9.29321e-188
-1.08304e-176
-1.529e-177
-6.03091e-178
-1.87357e-178
-4.45403e-179
-8.43594e-180
-1.32606e-180
-1.78897e-181
-2.12712e-182
-2.2767e-183
-2.23106e-184
-2.02958e-185
-1.73357e-186
-1.40365e-187
-1.08612e-188
-8.08797e-190
-5.83206e-191
-4.09479e-192
-2.81371e-193
-1.90124e-194
-1.2691e-195
-8.40623e-197
-5.55004e-198
-3.66901e-199
-2.44603e-200
-2.57033e-201
-1.38088e-200
-1.96223e-199
-2.72017e-198
-3.62784e-197
-4.6244e-196
-5.59258e-195
-6.36245e-194
-6.74138e-193
-6.57314e-192
-5.81193e-191
-4.57527e-190
-3.13208e-189
-1.80699e-188
-8.40556e-188
-2.94204e-187
-6.81048e-187
-7.78224e-176
-1.1066e-176
-4.37885e-177
-1.36351e-177
-3.24787e-178
-6.16298e-179
-9.70575e-180
-1.31187e-180
-1.56289e-181
-1.67615e-182
-1.64593e-183
-1.50044e-184
-1.28433e-185
-1.04213e-186
-8.08097e-188
-6.03031e-189
-4.35735e-190
-3.06559e-191
-2.11067e-192
-1.42895e-193
-9.55633e-195
-6.3415e-196
-4.19433e-197
-2.77763e-198
-1.85498e-199
-1.95246e-200
-1.04655e-199
-1.48369e-198
-2.05201e-197
-2.7303e-196
-3.47205e-195
-4.1889e-194
-4.75402e-193
-5.02491e-192
-4.88756e-191
-4.31099e-190
-3.38539e-189
-2.31186e-188
-1.33053e-187
-6.17443e-187
-2.15633e-186
-4.98314e-186
-5.58206e-175
-7.99501e-176
-3.17388e-176
-9.90611e-177
-2.36435e-177
-4.49492e-178
-7.09212e-179
-9.60437e-180
-1.14647e-180
-1.23205e-181
-1.21235e-182
-1.10754e-183
-9.50051e-185
-7.72549e-186
-6.00345e-187
-4.48951e-188
-3.25079e-189
-2.29175e-190
-1.58103e-191
-1.07246e-192
-7.18581e-194
-4.77724e-195
-3.16541e-196
-2.09994e-197
-1.40484e-198
-1.48116e-199
-7.9213e-199
-1.12038e-197
-1.54591e-196
-2.05204e-195
-2.60327e-194
-3.13315e-193
-3.54718e-192
-3.74011e-191
-3.62893e-190
-3.19294e-189
-2.50121e-188
-1.70384e-187
-9.78187e-187
-4.52844e-186
-1.57796e-185
-3.64028e-185
-3.99674e-174
-5.76615e-175
-2.2965e-175
-7.18458e-176
-1.71824e-176
-3.27281e-177
-5.17366e-178
-7.0199e-179
-8.3963e-180
-9.04157e-181
-8.91578e-182
-8.16239e-183
-7.01693e-184
-5.71834e-185
-4.45332e-186
-3.33743e-187
-2.42167e-188
-1.71075e-189
-1.18258e-190
-8.03751e-192
-5.39566e-193
-3.59378e-194
-2.38556e-195
-1.5854e-196
-1.06249e-197
-1.12214e-198
-5.9878e-198
-8.4491e-197
-1.16307e-195
-1.54017e-194
-1.94918e-193
-2.3402e-192
-2.64292e-191
-2.77978e-190
-2.69045e-189
-2.36133e-188
-1.84515e-187
-1.2538e-186
-7.18033e-186
-3.31601e-185
-1.15287e-184
-2.65502e-184
-2.85649e-173
-4.15131e-174
-1.65875e-174
-5.20171e-175
-1.24654e-175
-2.37892e-176
-3.76781e-177
-5.12237e-178
-6.13905e-179
-6.62455e-180
-6.54628e-181
-6.00608e-182
-5.17453e-183
-4.22616e-184
-3.29843e-185
-2.47726e-186
-1.80133e-187
-1.27517e-188
-8.83264e-190
-6.01499e-191
-4.04567e-192
-2.69967e-193
-1.79532e-194
-1.19528e-195
-8.02458e-197
-8.49012e-198
-4.52028e-197
-6.3632e-196
-8.7385e-195
-1.15439e-193
-1.45739e-192
-1.74545e-191
-1.96635e-190
-2.06302e-189
-1.99172e-188
-1.74369e-187
-1.3591e-186
-9.21204e-186
-5.26241e-185
-2.42433e-184
-8.40946e-184
-1.93328e-183
-2.03783e-172
-2.98338e-173
-1.19599e-173
-3.75949e-174
-9.02771e-175
-1.7262e-175
-2.73931e-176
-3.73148e-177
-4.4812e-178
-4.84573e-179
-4.79875e-180
-4.41239e-181
-3.80989e-182
-3.11852e-183
-2.4393e-184
-1.836e-185
-1.3379e-186
-9.49079e-188
-6.58734e-189
-4.49485e-190
-3.02907e-191
-2.0251e-192
-1.34921e-193
-8.9989e-195
-6.0523e-196
-6.41495e-197
-3.4079e-196
-4.7858e-195
-6.55653e-194
-8.64042e-193
-1.08815e-191
-1.3e-190
-1.46086e-189
-1.52881e-188
-1.47225e-187
-1.28565e-186
-9.99548e-186
-6.7578e-185
-3.85068e-184
-1.76958e-183
-6.1242e-183
-1.40543e-182
-1.45112e-171
-2.14017e-172
-8.60796e-173
-2.71233e-173
-6.52659e-174
-1.2504e-174
-1.98815e-175
-2.71366e-176
-3.26559e-177
-3.5387e-178
-3.51201e-179
-3.23638e-180
-2.80069e-181
-2.29758e-182
-1.80115e-183
-1.35866e-184
-9.92187e-186
-7.05321e-187
-4.90551e-188
-3.35395e-189
-2.26462e-190
-1.5169e-191
-1.0125e-192
-6.76545e-194
-4.55839e-195
-4.84042e-196
-2.56581e-195
-3.59455e-194
-4.91261e-193
-6.45816e-192
-8.11309e-191
-9.66829e-190
-1.08372e-188
-1.13126e-187
-1.08663e-186
-9.46477e-186
-7.33973e-185
-4.9496e-184
-2.81317e-183
-1.28957e-182
-4.45265e-182
-1.02002e-181
-1.03141e-170
-1.53249e-171
-6.18428e-172
-1.95336e-172
-4.71006e-173
-9.04167e-174
-1.44047e-174
-1.97009e-175
-2.37572e-176
-2.57992e-177
-2.56607e-178
-2.36996e-179
-2.05552e-180
-1.69007e-181
-1.32788e-182
-1.00387e-183
-7.34685e-185
-5.23376e-186
-3.64761e-187
-2.49893e-188
-1.69061e-189
-1.13458e-190
-7.58727e-192
-5.07907e-193
-3.4284e-194
-3.64736e-195
-1.9292e-194
-2.69611e-193
-3.67576e-192
-4.82025e-191
-6.04032e-190
-7.18002e-189
-8.02762e-188
-8.35828e-187
-8.0079e-186
-6.95708e-185
-5.38116e-184
-3.61947e-183
-2.05189e-182
-9.38234e-182
-3.23199e-181
-7.3906e-181
-7.31718e-170
-1.09534e-170
-4.43494e-171
-1.40422e-171
-3.39306e-172
-6.52648e-173
-1.04184e-173
-1.42781e-174
-1.7254e-175
-1.87775e-176
-1.87181e-177
-1.73265e-178
-1.50619e-179
-1.24122e-180
-9.7742e-182
-7.40569e-183
-5.43174e-184
-3.87773e-185
-2.70817e-186
-1.85909e-187
-1.26022e-188
-8.47374e-190
-5.67733e-191
-3.80758e-192
-2.57487e-193
-2.74458e-194
-1.44857e-193
-2.01944e-192
-2.74645e-191
-3.59263e-190
-4.49063e-189
-5.32433e-188
-5.93758e-187
-6.16617e-186
-5.89236e-185
-5.10585e-184
-3.93899e-183
-2.64255e-182
-1.49419e-181
-6.81492e-181
-2.34205e-180
-5.34589e-180
-5.18124e-169
-7.8144e-170
-3.1746e-170
-1.00763e-170
-2.43991e-171
-4.70257e-172
-7.52196e-173
-1.03299e-173
-1.25094e-174
-1.36438e-175
-1.3631e-176
-1.26463e-177
-1.10187e-178
-9.1011e-180
-7.18313e-181
-5.45472e-182
-4.0096e-183
-2.86862e-184
-2.00761e-185
-1.38099e-186
-9.37996e-188
-6.31934e-189
-4.24197e-190
-2.85025e-191
-1.93107e-192
-2.06238e-193
-1.08618e-192
-1.5105e-191
-2.0492e-190
-2.67381e-189
-3.33365e-188
-3.94241e-187
-4.3851e-186
-4.54205e-185
-4.329e-184
-3.74133e-183
-2.87873e-182
-1.92618e-181
-1.08629e-180
-4.94183e-180
-1.6943e-179
-3.86032e-179
-3.66178e-168
-5.56453e-169
-2.26822e-169
-7.21719e-170
-1.75132e-170
-3.38227e-171
-5.42112e-172
-7.46032e-173
-9.05379e-174
-9.89661e-175
-9.90973e-176
-9.215e-177
-8.04755e-178
-6.66244e-179
-5.27048e-180
-4.01135e-181
-2.95516e-182
-2.11882e-183
-1.48599e-184
-1.02428e-185
-6.97107e-187
-4.70566e-188
-3.16482e-189
-2.13052e-190
-1.44615e-191
-1.54758e-192
-8.13328e-192
-1.12823e-190
-1.52677e-189
-1.98711e-188
-2.47113e-187
-2.91481e-186
-3.23363e-185
-3.34056e-184
-3.17547e-183
-2.73713e-182
-2.10048e-181
-1.40173e-180
-7.88434e-180
-3.57755e-179
-1.22362e-178
-2.78279e-178
-2.58293e-167
-3.95494e-168
-1.61759e-168
-5.15975e-169
-1.25475e-169
-2.42825e-170
-3.90002e-171
-5.37836e-172
-6.5413e-173
-7.1662e-174
-7.19209e-175
-6.70341e-176
-5.86785e-177
-4.86925e-178
-3.86085e-179
-2.94519e-180
-2.17457e-181
-1.56255e-182
-1.09819e-183
-7.58544e-185
-5.17293e-186
-3.49876e-187
-2.35767e-188
-1.59018e-189
-1.08144e-190
-1.15964e-191
-6.08166e-191
-8.41513e-190
-1.1359e-188
-1.47461e-187
-1.82906e-186
-2.15181e-185
-2.38089e-184
-2.45309e-183
-2.32564e-182
-1.99926e-181
-1.53014e-180
-1.01839e-179
-5.71294e-179
-2.58552e-178
-8.82178e-178
-2.00256e-177
-1.81839e-166
-2.80558e-167
-1.15141e-167
-3.68193e-168
-8.97317e-169
-1.74013e-169
-2.80063e-170
-3.87047e-171
-4.71769e-172
-5.18005e-173
-5.21077e-174
-4.8681e-175
-4.27137e-176
-3.55281e-177
-2.82362e-178
-2.15891e-179
-1.59762e-180
-1.1505e-181
-8.10327e-183
-5.60877e-184
-3.83272e-185
-2.59746e-186
-1.75374e-187
-1.18512e-188
-8.07516e-190
-8.67718e-191
-4.54116e-190
-6.26762e-189
-8.43876e-188
-1.09268e-186
-1.35179e-185
-1.58613e-184
-1.75032e-183
-1.79857e-182
-1.70055e-181
-1.45795e-180
-1.11284e-179
-7.38655e-179
-4.13258e-178
-1.86538e-177
-6.34914e-177
-1.43858e-176
-1.27763e-165
-1.9864e-166
-8.18017e-167
-2.62242e-167
-6.40501e-168
-1.2447e-168
-2.00748e-169
-2.7803e-170
-3.39641e-171
-3.73779e-172
-3.76873e-173
-3.52923e-174
-3.10399e-175
-2.58796e-176
-2.06165e-177
-1.57997e-178
-1.17185e-179
-8.45754e-181
-5.96974e-182
-4.14071e-183
-2.83533e-184
-1.92538e-185
-1.30253e-186
-8.81924e-188
-6.02089e-189
-6.4835e-190
-3.38606e-189
-4.66143e-188
-6.26009e-187
-8.08474e-186
-9.97556e-185
-1.16738e-183
-1.28476e-182
-1.31661e-181
-1.24147e-180
-1.06147e-179
-8.08004e-179
-5.34861e-178
-2.9843e-177
-1.3435e-176
-4.56157e-176
-1.03161e-175
-8.95902e-165
-1.40368e-165
-5.80039e-166
-1.86422e-166
-4.56324e-167
-8.88656e-168
-1.43629e-168
-1.99356e-169
-2.44079e-170
-2.6923e-171
-2.72099e-172
-2.55417e-173
-2.25183e-174
-1.88197e-175
-1.50279e-176
-1.15437e-177
-8.58145e-179
-6.2073e-180
-4.39094e-181
-3.05208e-182
-2.09422e-183
-1.425e-184
-9.65936e-186
-6.55306e-187
-4.48255e-188
-4.83741e-189
-2.52117e-188
-3.46182e-187
-4.63704e-186
-5.97293e-185
-7.35028e-184
-8.57847e-183
-9.41548e-182
-9.6226e-181
-9.04862e-180
-7.71544e-179
-5.85695e-178
-3.86639e-177
-2.15139e-176
-9.65938e-176
-3.2715e-175
-7.38453e-175
-6.26966e-164
-9.89948e-165
-4.10494e-165
-1.32268e-165
-3.24486e-166
-6.33262e-167
-1.02571e-167
-1.4268e-168
-1.75085e-169
-1.93578e-170
-1.96107e-171
-1.84528e-172
-1.6308e-173
-1.36625e-174
-1.09359e-175
-8.42022e-177
-6.2739e-178
-4.54836e-179
-3.22448e-180
-2.24608e-181
-1.54439e-182
-1.05301e-183
-7.1522e-185
-4.86179e-186
-3.33226e-187
-3.604e-188
-1.87448e-187
-2.56716e-186
-3.4297e-185
-4.40608e-184
-5.4076e-183
-6.29408e-182
-6.88932e-181
-7.02151e-180
-6.58443e-179
-5.59877e-178
-4.23836e-177
-2.79015e-176
-1.54825e-175
-6.93264e-175
-2.34211e-174
-5.27655e-174
-4.37871e-163
-6.9678e-164
-2.89937e-164
-9.3663e-165
-2.30294e-165
-4.50407e-166
-7.31118e-167
-1.01928e-167
-1.25364e-168
-1.38931e-169
-1.41085e-170
-1.3308e-171
-1.179e-172
-9.90151e-174
-7.94465e-175
-6.13159e-176
-4.57925e-177
-3.32732e-178
-2.36405e-179
-1.65027e-180
-1.1371e-181
-7.76909e-183
-5.28757e-184
-3.6015e-185
-2.47341e-186
-2.68114e-187
-1.39164e-186
-1.9009e-185
-2.5329e-184
-3.2453e-183
-3.97221e-182
-4.61076e-181
-5.03288e-180
-5.11521e-179
-4.78343e-178
-4.056e-177
-3.06187e-176
-2.01002e-175
-1.11226e-174
-4.96681e-174
-1.67373e-173
-3.76348e-173
-3.05182e-162
-4.89449e-163
-2.04379e-163
-6.61952e-164
-1.63126e-164
-3.19735e-165
-5.20145e-166
-7.26784e-167
-8.95964e-168
-9.95296e-169
-1.01319e-169
-9.5805e-171
-8.50871e-172
-7.16343e-173
-5.76171e-174
-4.45746e-175
-3.33675e-176
-2.43005e-177
-1.73038e-178
-1.21055e-179
-8.35883e-181
-5.72293e-182
-3.90295e-183
-2.66379e-184
-1.83313e-185
-1.99164e-186
-1.03166e-185
-1.40546e-184
-1.86777e-183
-2.38666e-182
-2.91328e-181
-3.37228e-180
-3.67077e-179
-3.72036e-178
-3.46926e-177
-2.93339e-176
-2.20816e-175
-1.4455e-174
-7.9763e-174
-3.55204e-173
-1.19393e-172
-2.67938e-172
-2.12262e-161
-3.43114e-162
-1.4378e-162
-4.66897e-163
-1.15321e-163
-2.26533e-164
-3.69341e-165
-5.17243e-166
-6.39141e-167
-7.1171e-168
-7.26286e-169
-6.88472e-170
-6.12979e-171
-5.17347e-172
-4.17136e-173
-3.2349e-174
-2.42728e-175
-1.77177e-176
-1.26447e-177
-8.86538e-179
-6.13463e-180
-4.20893e-181
-2.87637e-182
-1.96716e-183
-1.35652e-184
-1.47726e-185
-7.63668e-185
-1.03758e-183
-1.3752e-182
-1.75248e-181
-2.13328e-180
-2.46252e-179
-2.67296e-178
-2.70141e-177
-2.51193e-176
-2.11788e-175
-1.58973e-174
-1.0377e-173
-5.70982e-173
-2.53567e-172
-8.50105e-172
-1.90404e-171
-1.47326e-160
-2.40039e-161
-1.00944e-161
-3.28658e-162
-8.13641e-163
-1.60184e-163
-2.6175e-164
-3.67411e-165
-4.55075e-166
-5.07979e-167
-5.19671e-168
-4.93854e-169
-4.40811e-170
-3.72972e-171
-3.01472e-172
-2.3436e-173
-1.76269e-174
-1.28964e-175
-9.22464e-177
-6.48179e-178
-4.49492e-179
-3.09047e-180
-2.11643e-181
-1.45044e-182
-1.00227e-183
-1.09408e-184
-5.64446e-184
-7.6484e-183
-1.01097e-181
-1.2848e-180
-1.55964e-179
-1.79529e-178
-1.94319e-177
-1.95826e-176
-1.81569e-175
-1.52646e-174
-1.1425e-173
-7.43624e-173
-4.08002e-172
-1.80682e-171
-6.04177e-171
-1.35054e-170
-1.0204e-159
-1.67582e-160
-7.07253e-161
-2.30881e-161
-5.72908e-162
-1.13044e-162
-1.85138e-163
-2.60478e-164
-3.23401e-165
-3.61886e-166
-3.71146e-167
-3.53603e-168
-3.16428e-169
-2.68409e-170
-2.17497e-171
-1.69493e-172
-1.27786e-173
-9.37109e-175
-6.71829e-176
-4.73117e-177
-3.28806e-178
-2.26553e-179
-1.55477e-180
-1.06775e-181
-7.39386e-183
-8.09071e-184
-4.16569e-183
-5.62929e-182
-7.42058e-181
-9.40442e-180
-1.13842e-178
-1.30672e-177
-1.41032e-176
-1.41717e-175
-1.31018e-174
-1.09829e-173
-8.19641e-173
-5.31936e-172
-2.91013e-171
-1.2851e-170
-4.28593e-170
-9.56132e-170
-7.05235e-159
-1.16752e-159
-4.94504e-160
-1.61861e-160
-4.02585e-161
-7.96164e-162
-1.30691e-162
-1.84307e-163
-2.29384e-164
-2.5732e-165
-2.64574e-166
-2.52716e-167
-2.26729e-168
-1.92814e-169
-1.56634e-170
-1.22365e-171
-9.24775e-173
-6.79774e-174
-4.8846e-175
-3.44756e-176
-2.40124e-177
-1.65807e-178
-1.14032e-179
-7.84782e-181
-5.44597e-182
-5.97395e-183
-3.06966e-182
-4.13682e-181
-5.4382e-180
-6.87286e-179
-8.29622e-178
-9.49544e-177
-1.02187e-175
-1.02385e-174
-9.4379e-174
-7.88831e-173
-5.86973e-172
-3.79822e-171
-2.07189e-170
-9.12323e-170
-3.03463e-169
-6.7562e-169
-4.86365e-158
-8.11682e-159
-3.45031e-159
-1.13239e-159
-2.82319e-160
-5.59603e-161
-9.20723e-162
-1.30153e-162
-1.62383e-163
-1.82618e-164
-1.88248e-165
-1.80277e-166
-1.62159e-167
-1.38258e-168
-1.126e-169
-8.81847e-171
-6.68077e-172
-4.92249e-173
-3.54531e-174
-2.50794e-175
-1.75067e-176
-1.21148e-177
-8.34978e-179
-5.75877e-180
-4.00491e-181
-4.40423e-182
-2.25855e-181
-3.03531e-180
-3.97911e-179
-5.0147e-178
-6.03599e-177
-6.88856e-176
-7.39167e-175
-7.38422e-174
-6.78675e-173
-5.65568e-172
-4.19596e-171
-2.70712e-170
-1.47236e-169
-6.46465e-169
-2.14457e-168
-4.76489e-168
-3.34692e-157
-5.63094e-158
-2.40232e-158
-7.90577e-159
-1.97572e-159
-3.92527e-160
-6.47343e-161
-9.17287e-162
-1.14727e-162
-1.29352e-163
-1.33686e-164
-1.2836e-165
-1.15763e-166
-9.89568e-168
-8.07992e-169
-6.34381e-170
-4.81779e-171
-3.55832e-172
-2.56877e-173
-1.82129e-174
-1.2742e-175
-8.83704e-177
-6.10394e-178
-4.21898e-179
-2.94049e-180
-3.24194e-181
-1.65919e-180
-2.22361e-179
-2.90686e-178
-3.653e-177
-4.38431e-176
-4.98902e-175
-5.33765e-174
-5.31647e-173
-4.87175e-172
-4.04771e-171
-2.99404e-170
-1.92591e-169
-1.04436e-168
-4.57211e-168
-1.51265e-167
-3.35398e-167
-2.29812e-156
-3.89799e-157
-1.66908e-157
-5.50776e-158
-1.37976e-158
-2.74766e-159
-4.54209e-160
-6.45181e-161
-8.08965e-162
-9.14437e-163
-9.47551e-164
-9.12213e-165
-8.24862e-166
-7.06964e-167
-5.78736e-168
-4.55535e-169
-3.46811e-170
-2.56765e-171
-1.85797e-172
-1.32035e-173
-9.25822e-175
-6.43523e-176
-4.45477e-177
-3.08585e-178
-2.15551e-179
-2.38267e-180
-1.21699e-179
-1.62639e-178
-2.12014e-177
-2.6567e-176
-3.17931e-175
-3.60718e-174
-3.84779e-173
-3.82106e-172
-3.49091e-171
-2.89169e-170
-2.13249e-169
-1.36759e-168
-7.39378e-168
-3.22743e-167
-1.06486e-166
-2.35622e-166
-1.57447e-155
-2.69249e-156
-1.15714e-156
-3.82894e-157
-9.61532e-158
-1.91933e-158
-3.1804e-159
-4.52872e-160
-5.69278e-161
-6.45175e-162
-6.70309e-163
-6.47036e-164
-5.86641e-165
-5.04124e-166
-4.13763e-167
-3.26513e-168
-2.49203e-169
-1.84949e-170
-1.34148e-171
-9.55529e-173
-6.71538e-174
-4.67826e-175
-3.24574e-176
-2.25335e-177
-1.57753e-178
-1.7484e-179
-8.9124e-179
-1.18768e-177
-1.54383e-176
-1.92895e-175
-2.30163e-174
-2.60364e-173
-2.76898e-172
-2.74144e-171
-2.49697e-170
-2.06207e-169
-1.51605e-168
-9.69301e-168
-5.22461e-167
-2.27382e-166
-7.48166e-166
-1.652e-165
-1.07627e-154
-1.85572e-155
-8.0048e-156
-2.65611e-156
-6.6865e-157
-1.3379e-157
-2.22231e-158
-3.17233e-159
-3.99798e-160
-4.54292e-161
-4.73255e-162
-4.58057e-163
-4.16422e-164
-3.58804e-165
-2.95265e-166
-2.33603e-167
-1.7874e-168
-1.32979e-169
-9.66843e-171
-6.90292e-172
-4.8625e-173
-3.39516e-174
-2.36085e-175
-1.64271e-176
-1.15265e-177
-1.28094e-178
-6.51649e-178
-8.65905e-177
-1.12233e-175
-1.39822e-174
-1.66342e-173
-1.87606e-172
-1.98916e-171
-1.96337e-170
-1.7828e-169
-1.46777e-168
-1.0758e-167
-6.85707e-167
-3.68473e-166
-1.59884e-165
-5.24615e-165
-1.15595e-164
-7.34047e-154
-1.27616e-154
-5.52534e-155
-1.83852e-155
-4.63978e-156
-9.30615e-157
-1.54958e-157
-2.21759e-158
-2.80201e-159
-3.19241e-160
-3.33467e-161
-3.23639e-162
-2.95023e-163
-2.54888e-164
-2.10308e-165
-1.6682e-166
-1.27965e-167
-9.54393e-169
-6.95579e-170
-4.97795e-171
-3.51468e-172
-2.45972e-173
-1.7143e-174
-1.19555e-175
-8.40829e-177
-9.36971e-178
-4.75704e-177
-6.30284e-176
-8.14564e-175
-1.01181e-173
-1.20013e-172
-1.34945e-171
-1.42644e-170
-1.40361e-169
-1.27058e-168
-1.04281e-167
-7.61952e-167
-4.84157e-166
-2.59365e-165
-1.12201e-164
-3.67125e-164
-8.07212e-164
-4.99493e-153
-8.75635e-154
-3.80541e-154
-1.26979e-154
-3.21256e-155
-6.45926e-156
-1.07821e-156
-1.54695e-157
-1.95976e-158
-2.23882e-159
-2.34499e-160
-2.28215e-161
-2.08608e-162
-1.8072e-163
-1.49511e-164
-1.18905e-165
-9.14437e-167
-6.83709e-168
-4.99515e-169
-3.58335e-170
-2.53598e-171
-1.77891e-172
-1.24268e-173
-8.68651e-175
-6.1235e-176
-6.84265e-177
-3.46704e-176
-4.58025e-175
-5.90208e-174
-7.30948e-173
-8.64383e-172
-9.68964e-171
-1.02108e-169
-1.00162e-168
-9.03854e-168
-7.39501e-167
-5.38639e-166
-3.41188e-165
-1.82206e-164
-7.85821e-164
-2.56395e-163
-5.62536e-163
-3.391e-152
-5.99451e-153
-2.61498e-153
-8.75049e-154
-2.21946e-154
-4.47355e-155
-7.48614e-156
-1.07684e-156
-1.36782e-157
-1.56685e-158
-1.64569e-159
-1.60605e-160
-1.47215e-161
-1.27884e-162
-1.06085e-163
-8.45921e-165
-6.5223e-166
-4.88889e-167
-3.58059e-168
-2.57479e-169
-1.82654e-170
-1.28428e-171
-8.99247e-173
-6.30063e-174
-4.45214e-175
-4.98907e-176
-2.52275e-175
-3.32294e-174
-4.26927e-173
-5.27146e-172
-6.21481e-171
-6.94527e-170
-7.29607e-169
-7.13452e-168
-6.41781e-167
-5.23421e-166
-3.80043e-165
-2.39968e-164
-1.27748e-163
-5.49256e-163
-1.78698e-162
-3.91217e-162
-2.29672e-151
-4.09437e-152
-1.79287e-152
-6.01665e-153
-1.52996e-153
-3.09148e-154
-5.18648e-155
-7.47991e-156
-9.5267e-157
-1.0943e-157
-1.15257e-158
-1.12798e-159
-1.03683e-160
-9.03185e-162
-7.51268e-163
-6.00655e-164
-4.64327e-165
-3.48927e-166
-2.56186e-167
-1.84672e-168
-1.3132e-169
-9.25535e-171
-6.49596e-172
-4.56225e-173
-3.23154e-174
-3.63167e-175
-1.83263e-174
-2.40675e-173
-3.08294e-172
-3.79512e-171
-4.46053e-170
-4.9693e-169
-5.20389e-168
-5.07253e-167
-4.54842e-166
-3.69772e-165
-2.67623e-164
-1.68444e-163
-8.9387e-163
-3.83126e-162
-1.24289e-161
-2.71507e-161
-1.55189e-150
-2.79005e-151
-1.2264e-151
-4.12752e-152
-1.05229e-152
-2.13166e-153
-3.58539e-154
-5.18448e-155
-6.62111e-156
-7.6266e-157
-8.05548e-158
-7.90597e-159
-7.28772e-160
-6.3661e-161
-5.30986e-162
-4.25676e-163
-3.29925e-164
-2.48564e-165
-1.82956e-166
-1.32208e-167
-9.42418e-169
-6.65811e-170
-4.6843e-171
-3.29781e-172
-2.34163e-173
-2.63925e-174
-1.32909e-173
-1.74023e-172
-2.22244e-171
-2.72748e-170
-3.19577e-169
-3.5491e-168
-3.70485e-167
-3.59976e-166
-3.21743e-165
-2.60723e-164
-1.88089e-163
-1.18002e-162
-6.24187e-162
-2.66696e-161
-8.62657e-161
-1.88031e-160
-1.0461e-149
-1.89678e-150
-8.36961e-151
-2.82505e-151
-7.22111e-152
-1.46654e-152
-2.47308e-153
-3.58564e-154
-4.59183e-155
-5.30405e-156
-5.61833e-157
-5.5299e-158
-5.11203e-159
-4.47816e-160
-3.74551e-161
-3.01081e-162
-2.33974e-163
-1.7673e-164
-1.30412e-165
-9.44735e-167
-6.75088e-168
-4.78108e-169
-3.37192e-170
-2.37968e-171
-1.6939e-172
-1.91485e-173
-9.62296e-173
-1.25615e-171
-1.59935e-170
-1.95675e-169
-2.28553e-168
-2.53018e-167
-2.63274e-166
-2.5498e-165
-2.27157e-164
-1.83475e-163
-1.3193e-162
-8.24997e-162
-4.34977e-161
-1.85263e-160
-5.9749e-160
-1.29944e-159
-7.03447e-149
-1.28645e-149
-5.69849e-150
-1.9291e-150
-4.94396e-151
-1.00666e-151
-1.70203e-152
-2.4744e-153
-3.17758e-154
-3.68091e-155
-3.91028e-156
-3.8599e-157
-3.57853e-158
-3.14374e-159
-2.63676e-160
-2.12534e-161
-1.65604e-162
-1.25414e-163
-9.27818e-165
-6.73822e-166
-4.82696e-167
-3.42698e-168
-2.42289e-169
-1.71416e-170
-1.22325e-171
-1.38696e-172
-6.95551e-172
-9.05174e-171
-1.14895e-169
-1.40132e-168
-1.6316e-167
-1.80047e-166
-1.86739e-165
-1.80265e-164
-1.60068e-163
-1.28861e-162
-9.23534e-162
-5.75613e-161
-3.02497e-160
-1.28425e-159
-4.12951e-159
-8.96082e-159
-4.71876e-148
-8.70417e-149
-3.87065e-149
-1.31421e-149
-3.37706e-150
-6.89414e-151
-1.16874e-151
-1.70375e-152
-2.19409e-153
-2.54896e-154
-2.71571e-155
-2.68858e-156